 #  generated by VMD
  
         234  atoms
           5  atom types
 
      0.000000000000      15.000000000000  xlo xhi
      0.000000000000      15.000000000000  ylo yhi
      0.000000000000      15.000000000000  zlo zhi
 
Masses
 
            1   12.01100000             # C
            2   1.00800000              # H
            3   35.45000000             # Cl
            4   79.90400000             # Br
            5   14.00700000             # N
 
Atoms # atomic
 
         1    1        7.500000000000       7.500000000000       7.500000000000
         2    2        6.710382000000       6.875477000000       7.171980000000
         3    2        7.373926000000       7.565242000000       8.540806000000
         4    2        8.462301000000       7.098398000000       7.223378000000
         5    3        6.679401000000       4.600915000000       8.532734000000
         6    4        7.403844000000       9.270821000000       6.655249000000
         7    1        1.924716000000       8.334921000000       5.176909000000
         8    2        2.509171000000       8.461498000000       6.151246000000
         9    2        0.903143000000       8.213156000000       5.573118000000
        10    2        2.316401000000       7.501854000000       4.658560000000
        11    1        1.986828000000       9.628718000000       4.405514000000
        12    5        1.961933000000      10.652951000000       3.837827000000
        13    1       12.373069000000      11.520789000000      11.726107000000
        14    2       11.868943000000      10.606023000000      12.142190000000
        15    2       13.457055000000      11.564796000000      12.009430000000
        16    2       11.940517000000      12.406685000000      12.236895000000
        17    1       12.172334000000      11.564129000000      10.269629000000
        18    5       12.195432000000      11.554902000000       9.093227000000
        19    1        1.057943000000       9.980050000000      10.675409000000
        20    2        1.967010000000       9.998729000000      10.006055000000
        21    2        0.456265000000       9.082202000000      10.444090000000
        22    2        0.565739000000      10.929327000000      10.590712000000
        23    1        1.470261000000       9.713886000000      12.088910000000
        24    5        1.809198000000       9.569584000000      13.220716000000
        25    1       14.134322000000       4.224219000000       6.739504000000
        26    2       13.886805000000       4.839428000000       5.823468000000
        27    2        0.017443000000       4.565181000000       7.248124000000
        28    2       14.391312000000       3.255508000000       6.438269000000
        29    1       13.052350000000       4.192641000000       7.692893000000
        30    5       12.181113000000       4.129258000000       8.465378000000
        31    1        6.503993000000       4.753991000000       4.716416000000
        32    2        7.233616000000       5.043444000000       3.982238000000
        33    2        6.863435000000       5.052006000000       5.683418000000
        34    2        6.398670000000       3.637503000000       4.841117000000
        35    1        5.323734000000       5.546572000000       4.450850000000
        36    5        4.469998000000       6.235975000000       4.025912000000
        37    1        3.023104000000       1.791280000000       2.217835000000
        38    2        3.277833000000       0.802994000000       2.604091000000
        39    2        3.584543000000       2.074363000000       1.379131000000
        40    2        3.216842000000       2.454604000000       3.087169000000
        41    1        1.624044000000       1.815441000000       1.799325000000
        42    5        0.577836000000       1.688010000000       1.298935000000
        43    1        4.302107000000      11.742678000000      12.191894000000
        44    2        3.852358000000      12.533392000000      11.623841000000
        45    2        4.973706000000      11.158029000000      11.517151000000
        46    2        3.478321000000      11.166124000000      12.587850000000
        47    1        5.012696000000      12.411548000000      13.254308000000
        48    5        5.476609000000      13.186456000000      14.026774000000
        49    1        3.627924000000      13.267480000000       6.146158000000
        50    2        2.692309000000      13.415441000000       5.588540000000
        51    2        3.961681000000      12.205880000000       6.021233000000
        52    2        3.427339000000      13.650192000000       7.159770000000
        53    1        4.590790000000      14.224747000000       5.600355000000
        54    5        5.378931000000      14.978759000000       5.125779000000
        55    1        8.613903000000      11.519886000000       3.801091000000
        56    2        8.604307000000      11.610004000000       4.966463000000
        57    2        9.313165000000      12.179146000000       3.244900000000
        58    2        7.655085000000      11.752280000000       3.455608000000
        59    1        8.821942000000      10.115923000000       3.405772000000
        60    5        8.892425000000       9.018876000000       2.981972000000
        61    1        9.634574000000      12.391208000000      14.764577000000
        62    2        8.715652000000      11.745920000000      14.747166000000
        63    2        9.772673000000      12.930280000000       0.687369000000
        64    2        9.639126000000      13.121819000000      13.953069000000
        65    1       10.868966000000      11.588670000000      14.771892000000
        66    5       11.879811000000      11.011073000000      14.703467000000
        67    1       11.836549000000       7.321844000000       2.985095000000
        68    2       11.654634000000       6.257636000000       2.730768000000
        69    2       10.956964000000       7.964553000000       3.290020000000
        70    2       12.194888000000       7.770804000000       2.119796000000
        71    1       12.886367000000       7.174929000000       4.007398000000
        72    5       13.618604000000       7.055458000000       4.936439000000
        73    1       13.566692000000       6.439980000000      11.318469000000
        74    2       12.786144000000       6.474740000000      12.131600000000
        75    2       13.241742000000       7.256959000000      10.692387000000
        76    2       13.537989000000       5.509945000000      10.720133000000
        77    1       14.912301000000       6.708679000000      11.893788000000
        78    5        1.006293000000       6.531104000000      12.295930000000
        79    1        0.560630000000      14.050428000000       9.136436000000
        80    2        1.627407000000      14.162873000000       9.304461000000
        81    2        0.139681000000       0.023395000000       9.384041000000
        82    2        0.121320000000      13.492897000000       9.908973000000
        83    1        0.324191000000      13.443291000000       7.871713000000
        84    5        0.143054000000      12.901572000000       6.821001000000
        85    1       12.376584000000       0.852829000000       0.424371000000
        86    2       11.721915000000       1.692166000000       0.501002000000
        87    2       12.417499000000       0.266324000000       1.336135000000
        88    2       13.407243000000       1.198872000000       0.321854000000
        89    1       12.192917000000       0.073685000000      14.233835000000
        90    5       12.103767000000      14.582309000000      13.175028000000
        91    1        9.568356000000       3.867381000000       2.373907000000
        92    2       10.534823000000       3.878480000000       1.814201000000
        93    2        9.432349000000       4.775696000000       2.989725000000
        94    2        9.757911000000       3.022375000000       3.061936000000
        95    1        8.410931000000       3.629944000000       1.539932000000
        96    5        7.364992000000       3.421542000000       1.054029000000
        97    1        4.968196000000       1.933593000000       7.819995000000
        98    2        5.290816000000       1.592470000000       6.815829000000
        99    2        4.405495000000       2.865165000000       7.737087000000
       100    2        5.743052000000       2.085731000000       8.563949000000
       101    1        4.135644000000       0.886898000000       8.388429000000
       102    5        3.500710000000       0.011027000000       8.864034000000
       103    1        2.350869000000       3.783494000000      10.069444000000
       104    2        2.228274000000       4.724439000000      10.567659000000
       105    2        2.749415000000       3.079168000000      10.827503000000
       106    2        3.158590000000       3.944361000000       9.356824000000
       107    1        1.119576000000       3.209569000000       9.428643000000
       108    5        0.244872000000       2.613835000000       8.963250000000
       109    1       13.806862000000       1.434337000000       3.924205000000
       110    2       14.697827000000       1.402962000000       4.576637000000
       111    2       13.738631000000       0.469589000000       3.359447000000
       112    2       13.849190000000       2.174555000000       3.175096000000
       113    1       12.536149000000       1.726400000000       4.576812000000
       114    5       11.415418000000       1.815330000000       4.904953000000
       115    1       14.214381000000       9.804836000000       6.939248000000
       116    2       13.415490000000      10.338449000000       7.467679000000
       117    2       14.870500000000      10.548366000000       6.606975000000
       118    2       13.764456000000       9.269566000000       6.105459000000
       119    1       14.925444000000       8.774288000000       7.741287000000
       120    5        0.319564000000       7.898557000000       8.375753000000
       121    1       13.519336000000      10.759740000000       2.534125000000
       122    2       14.285208000000      10.279315000000       3.065307000000
       123    2       12.489656000000      10.297048000000       2.653859000000
       124    2       13.641142000000      10.676062000000       1.460782000000
       125    1       13.518635000000      12.147733000000       2.872973000000
       126    5       13.125151000000      13.203603000000       3.229099000000
       127    1       14.350775000000       4.652865000000      14.831857000000
       128    2        0.250617000000       5.267921000000       0.082606000000
       129    2       14.623856000000       3.794623000000      14.254767000000
       130    2       13.631407000000       5.239920000000      14.272473000000
       131    1       13.724016000000       4.265874000000       1.135302000000
       132    5       13.163203000000       4.234077000000       2.149978000000
       133    1        6.940699000000      14.594474000000       2.020024000000
       134    2        6.390484000000       0.416934000000       2.593617000000
       135    2        6.517108000000      14.273051000000       1.093481000000
       136    2        7.116830000000      13.662924000000       2.677261000000
       137    1        8.250098000000       0.167410000000       1.716893000000
       138    5        9.315846000000       0.528825000000       1.496744000000
       139    1       10.891919000000       8.588189000000       7.276262000000
       140    2       11.556169000000       8.856618000000       8.102726000000
       141    2        9.951224000000       8.452199000000       7.761887000000
       142    2       11.205695000000       7.643007000000       6.897604000000
       143    1       10.934627000000       9.599080000000       6.195940000000
       144    5       10.983278000000      10.373261000000       5.337630000000
       145    1        0.232467000000      13.511072000000      14.665054000000
       146    2       14.566021000000      12.783153000000       0.162967000000
       147    2        1.240513000000      13.560419000000       0.118119000000
       148    2       14.700110000000      14.453726000000      14.839040000000
       149    1        0.440984000000      13.275812000000      13.237770000000
       150    5        0.547223000000      13.111728000000      12.090157000000
       151    1        1.446970000000       4.797197000000       4.296141000000
       152    2        1.013378000000       5.696765000000       4.844125000000
       153    2        2.266298000000       5.275695000000       3.641543000000
       154    2        0.689922000000       4.414138000000       3.577630000000
       155    1        1.987631000000       3.891150000000       5.319201000000
       156    5        2.260402000000       3.241317000000       6.247391000000
       157    1        9.471288000000       3.498779000000       6.799811000000
       158    2        9.195478000000       2.659907000000       6.095837000000
       159    2       10.275121000000       3.066899000000       7.408819000000
       160    2        8.513098000000       3.545610000000       7.406728000000
       161    1       10.020000000000       4.627257000000       6.041545000000
       162    5       10.574502000000       5.413789000000       5.363376000000
       163    1        3.826522000000       7.026386000000       8.142878000000
       164    2        4.152901000000       7.669407000000       7.382291000000
       165    2        4.453604000000       6.114989000000       8.200227000000
       166    2        2.814077000000       6.632715000000       7.949255000000
       167    1        3.987183000000       7.818690000000       9.387805000000
       168    5        4.314645000000       8.536213000000      10.241056000000
       169    1        7.557319000000       9.608703000000      10.877836000000
       170    2        8.191129000000      10.442549000000      10.552928000000
       171    2        8.012623000000       8.670299000000      10.539197000000
       172    2        6.606546000000       9.718571000000      10.383219000000
       173    1        7.296113000000       9.626494000000      12.372941000000
       174    5        7.001134000000       9.683411000000      13.503523000000
       175    1        4.375198000000       5.222698000000       0.240968000000
       176    2        5.142161000000       5.342553000000      14.457438000000
       177    2        4.007417000000       6.152587000000       0.613177000000
       178    2        4.795111000000       4.805411000000       1.093071000000
       179    1        3.272966000000       4.311386000000      14.790718000000
       180    5        2.371939000000       3.660792000000      14.436741000000
       181    1       12.665002000000       1.323218000000      10.591489000000
       182    2       13.231816000000       0.484059000000      10.974447000000
       183    2       11.677122000000       0.906709000000      10.439779000000
       184    2       12.978762000000       1.654833000000       9.601297000000
       185    1       12.573559000000       2.370877000000      11.594039000000
       186    5       12.648727000000       3.084766000000      12.485444000000
       187    1        8.882415000000       6.926864000000      14.959845000000
       188    2        8.148316000000       7.343443000000      14.272513000000
       189    2        8.627760000000       5.907140000000       0.189425000000
       190    2        8.869171000000       7.444016000000       0.981904000000
       191    1       10.280670000000       6.920262000000      14.475016000000
       192    5       11.321760000000       7.108220000000      14.009642000000
       193    1       14.104034000000       8.657811000000      14.758474000000
       194    2       13.214718000000       9.275306000000      14.846842000000
       195    2       14.899970000000       9.193530000000      14.240911000000
       196    2       13.692421000000       7.773617000000      14.226789000000
       197    1       14.701749000000       8.144294000000       0.961800000000
       198    5        0.143374000000       7.573584000000       1.868887000000
       199    1       11.532102000000      13.729703000000       6.329927000000
       200    2       12.600931000000      13.649661000000       6.363490000000
       201    2       11.154753000000      12.711722000000       6.662651000000
       202    2       11.368561000000      13.817746000000       5.221772000000
       203    1       10.943322000000      14.687658000000       7.161563000000
       204    5       10.516585000000       0.503457000000       7.843365000000
       205    1        4.815458000000       5.312493000000      11.413543000000
       206    2        4.903240000000       4.259033000000      11.706062000000
       207    2        3.837602000000       5.657487000000      11.749007000000
       208    2        4.939994000000       5.502769000000      10.355875000000
       209    1        5.996580000000       5.952455000000      12.110361000000
       210    5        6.901773000000       6.384761000000      12.699305000000
       211    1        5.896354000000       8.384559000000       1.065644000000
       212    2        6.260841000000       7.576716000000       1.734677000000
       213    2        4.836473000000       8.474922000000       1.304581000000
       214    2        5.940211000000       8.112690000000       0.051257000000
       215    1        6.480809000000       9.732820000000       1.258238000000
       216    5        7.030196000000      10.764087000000       1.298396000000
       217    1        4.208326000000      11.692955000000       1.682546000000
       218    2        3.652342000000      10.791622000000       1.975836000000
       219    2        4.516372000000      11.711458000000       0.647557000000
       220    2        5.097045000000      11.641163000000       2.341198000000
       221    1        3.363430000000      12.879614000000       2.103881000000
       222    5        2.674958000000      13.609082000000       2.658867000000
       223    1        9.637997000000       4.711934000000      10.951732000000
       224    2        9.336234000000       4.648545000000      12.000879000000
       225    2        8.795320000000       4.233552000000      10.420877000000
       226    2       10.566103000000       4.169126000000      10.721448000000
       227    1        9.772337000000       6.106544000000      10.522053000000
       228    5        9.854061000000       7.163735000000      10.018017000000
       229    1        8.409683000000       0.674273000000      11.466436000000
       230    2        7.571015000000       1.078768000000      12.008157000000
       231    2        9.389745000000       0.765564000000      12.067378000000
       232    2        8.452283000000       1.172973000000      10.432542000000
       233    1        8.103704000000      14.278503000000      11.301542000000
       234    5        7.829118000000      13.181581000000      11.234195000000
