 #  generated by VMD
  
         234  atoms
           5  atom types
 
      0.000000000000      15.000000000000  xlo xhi
      0.000000000000      15.000000000000  ylo yhi
      0.000000000000      15.000000000000  zlo zhi
 
Masses
 
            1   12.01100000             # C
            2   1.00800000              # H
            3   35.45000000             # Cl
            4   79.90400000             # Br
            5   14.00700000             # N
 
Atoms # atomic
 
         1    1        7.500000000000       7.500000000000       7.500000000000
         2    2        8.549891000000       7.807682000000       7.505547000000
         3    2        6.834537000000       8.256197000000       7.967924000000
         4    2        7.099242000000       7.332647000000       6.454712000000
         5    3       12.262212000000       0.285121000000       2.491600000000
         6    4        7.375448000000       5.805687000000       8.248910000000
         7    1       12.017476000000       8.250510000000      14.660736000000
         8    2       12.889509000000       8.990002000000      14.910343000000
         9    2       12.105025000000       7.916417000000      13.630002000000
        10    2       11.120960000000       8.813881000000      14.710228000000
        11    1       11.913984000000       7.062111000000       0.485071000000
        12    5       11.849777000000       6.064823000000       1.002027000000
        13    1       12.912929000000       2.385361000000      14.987677000000
        14    2       12.085068000000       1.751336000000       0.416619000000
        15    2       13.348859000000       3.006758000000       0.715206000000
        16    2       12.566598000000       3.099959000000      14.164374000000
        17    1       13.896140000000       1.546573000000      14.415334000000
        18    5       14.709877000000       0.950242000000      13.839957000000
        19    1        1.418821000000       9.598416000000      11.429903000000
        20    2        2.353182000000       9.289475000000      11.936799000000
        21    2        1.701156000000      10.350226000000      10.696137000000
        22    2        0.860664000000      10.162685000000      12.158088000000
        23    1        0.600891000000       8.552726000000      10.837266000000
        24    5       14.894836000000       7.721880000000      10.405461000000
        25    1        0.846827000000       2.030542000000       2.145200000000
        26    2       14.888802000000       1.736797000000       2.527158000000
        27    2        1.132586000000       1.294718000000       1.432931000000
        28    2        1.484563000000       2.096385000000       3.031772000000
        29    1        0.980591000000       3.312754000000       1.525516000000
        30    5        1.068847000000       4.338567000000       0.982788000000
        31    1        9.604955000000       3.167400000000       1.843039000000
        32    2       10.527003000000       2.873077000000       2.340325000000
        33    2        8.970718000000       3.879621000000       2.456375000000
        34    2        9.093059000000       2.225855000000       1.736134000000
        35    1        9.937125000000       3.524568000000       0.471247000000
        36    5        9.959357000000       3.733259000000      14.330947000000
        37    1       14.664265000000       7.740270000000       2.759865000000
        38    2        0.146088000000       8.565463000000       3.355939000000
        39    2        0.366734000000       7.594670000000       1.943100000000
        40    2       13.816785000000       8.196151000000       2.275571000000
        41    1       14.332211000000       6.616722000000       3.576058000000
        42    5       14.035000000000       5.793261000000       4.320544000000
        43    1        8.932058000000       9.403001000000       1.939076000000
        44    2        9.837497000000       8.818717000000       2.072845000000
        45    2        8.597549000000       9.699732000000       2.976096000000
        46    2        8.151516000000       8.760633000000       1.574107000000
        47    1        9.161053000000      10.498826000000       0.961929000000
        48    5        9.483000000000      11.227444000000       0.104577000000
        49    1       14.846279000000      13.611945000000      10.629421000000
        50    2        0.365330000000      14.289040000000      11.346384000000
        51    2       14.974110000000      12.596605000000      10.913482000000
        52    2        0.155464000000      13.730437000000       9.609340000000
        53    1       13.337456000000      13.799625000000      10.686932000000
        54    5       12.175116000000      13.787387000000      10.666499000000
        55    1       10.430448000000       6.584508000000       4.353527000000
        56    2       11.528181000000       6.422823000000       4.279777000000
        57    2        9.868868000000       5.785726000000       4.906487000000
        58    2       10.099652000000       6.688502000000       3.367847000000
        59    1       10.220060000000       7.937874000000       4.936618000000
        60    5        9.980781000000       9.033178000000       5.303427000000
        61    1        4.418702000000       5.350661000000      10.465670000000
        62    2        5.185995000000       6.080051000000      10.779914000000
        63    2        4.256378000000       5.464310000000       9.356753000000
        64    2        3.460879000000       5.713556000000      10.899449000000
        65    1        4.615307000000       4.049245000000      11.023772000000
        66    5        4.635478000000       3.005944000000      11.489734000000
        67    1        9.234612000000       0.058659000000       4.933550000000
        68    2        9.244777000000       0.921418000000       4.290795000000
        69    2        9.611744000000       0.268679000000       5.919403000000
        70    2        9.830967000000      14.281390000000       4.528532000000
        71    1        7.827470000000      14.556137000000       5.128541000000
        72    5        6.763575000000      14.053827000000       5.196629000000
        73    1       10.734409000000      11.196154000000      11.753947000000
        74    2        9.920045000000      11.727788000000      12.277159000000
        75    2       11.611596000000      11.080647000000      12.465911000000
        76    2       11.037174000000      11.731629000000      10.817278000000
        77    1       10.194654000000       9.868933000000      11.326157000000
        78    5        9.947770000000       8.867612000000      10.760339000000
        79    1        5.170051000000      10.402162000000       4.689939000000
        80    2        6.061623000000      10.016524000000       4.153487000000
        81    2        4.353596000000       9.923626000000       4.096642000000
        82    2        5.224487000000      11.481301000000       4.554988000000
        83    1        4.977043000000       9.973171000000       6.083860000000
        84    5        4.807173000000       9.654990000000       7.206832000000
        85    1        5.005587000000      11.483737000000      14.154199000000
        86    2        3.922443000000      11.216078000000      14.229359000000
        87    2        4.977849000000      12.521660000000      13.841346000000
        88    2        5.464582000000      10.872542000000      13.367757000000
        89    1        5.611957000000      11.215271000000       0.421276000000
        90    5        6.020960000000      10.965192000000       1.494787000000
        91    1        1.324965000000       9.555003000000       7.336464000000
        92    2        2.209405000000      10.185662000000       7.279075000000
        93    2        1.445574000000       8.724900000000       8.017508000000
        94    2        1.065618000000       9.183644000000       6.354828000000
        95    1        0.132080000000      10.285909000000       7.796042000000
        96    5       14.083159000000      10.585372000000       8.263789000000
        97    1        2.559837000000       1.751067000000      13.321840000000
        98    2        1.999223000000       2.535277000000      13.860530000000
        99    2        2.649144000000       0.855393000000      13.952791000000
       100    2        3.602925000000       2.020515000000      13.216383000000
       101    1        2.011089000000       1.335594000000      12.067014000000
       102    5        1.826766000000       1.162006000000      10.918573000000
       103    1       11.816620000000       8.008902000000       8.299557000000
       104    2       10.833521000000       8.144789000000       8.695037000000
       105    2       12.663258000000       8.128846000000       8.946507000000
       106    2       11.887528000000       8.772368000000       7.427711000000
       107    1       11.683298000000       6.614688000000       7.915162000000
       108    5       11.500838000000       5.445757000000       7.715860000000
       109    1        7.058830000000       1.729766000000      13.397317000000
       110    2        6.322233000000       2.530859000000      13.144858000000
       111    2        7.650069000000       1.983934000000      14.328315000000
       112    2        7.798004000000       1.592020000000      12.623256000000
       113    1        6.300024000000       0.494500000000      13.499916000000
       114    5        5.435891000000      14.674350000000      13.453313000000
       115    1       12.127182000000      12.002079000000       4.617066000000
       116    2       12.626812000000      11.848449000000       5.589962000000
       117    2       11.816943000000      13.086203000000       4.486321000000
       118    2       11.255254000000      11.294577000000       4.648058000000
       119    1       12.995209000000      11.591253000000       3.519513000000
       120    5       13.631772000000      11.051789000000       2.701086000000
       121    1        8.453248000000       4.374542000000      11.239921000000
       122    2        9.065067000000       4.801885000000      10.414817000000
       123    2        9.184207000000       3.949346000000      11.985087000000
       124    2        7.744867000000       3.611462000000      10.869671000000
       125    1        7.693246000000       5.493039000000      11.774098000000
       126    5        7.017138000000       6.286694000000      12.267621000000
       127    1        6.306725000000       1.667148000000       2.594633000000
       128    2        7.143803000000       2.387955000000       2.534945000000
       129    2        6.203679000000       1.404145000000       3.651035000000
       130    2        6.494649000000       0.727559000000       1.989423000000
       131    1        5.106854000000       2.272219000000       2.038918000000
       132    5        4.204418000000       2.746314000000       1.462352000000
       133    1       13.957260000000      13.251718000000       0.061845000000
       134    2       13.339548000000      13.971122000000      14.572857000000
       135    2       13.538472000000      12.899522000000       1.000757000000
       136    2       14.974907000000      13.645409000000       0.268786000000
       137    1       14.122211000000      12.137754000000      14.145918000000
       138    5       14.326262000000      11.253577000000      13.393340000000
       139    1       14.823956000000       6.324053000000      13.628467000000
       140    2       13.954853000000       5.904031000000      13.154480000000
       141    2       14.805107000000       6.149059000000      14.686787000000
       142    2        0.031210000000       7.418763000000      13.446912000000
       143    1        1.008022000000       5.542520000000      13.081119000000
       144    5        1.871732000000       4.931048000000      12.648465000000
       145    1        6.076944000000       2.580987000000       6.614991000000
       146    2        5.680560000000       3.482766000000       7.061589000000
       147    2        5.346208000000       2.346844000000       5.826458000000
       148    2        6.098713000000       1.665327000000       7.230626000000
       149    1        7.358927000000       2.941232000000       5.994437000000
       150    5        8.254633000000       3.161995000000       5.275070000000
       151    1        2.779093000000       0.653300000000       7.456261000000
       152    2        2.516348000000       1.620113000000       7.943781000000
       153    2        1.903207000000       0.062243000000       7.528318000000
       154    2        3.606629000000       0.136791000000       7.994598000000
       155    1        2.979571000000       0.896692000000       6.046392000000
       156    5        3.079230000000       1.144504000000       4.925311000000
       157    1        4.895225000000       5.905135000000       3.513824000000
       158    2        5.184384000000       5.410550000000       4.435307000000
       159    2        4.270394000000       6.776113000000       3.541575000000
       160    2        4.468193000000       5.108663000000       2.882868000000
       161    1        6.116301000000       6.230269000000       2.818310000000
       162    5        7.169565000000       6.446014000000       2.328691000000
       163    1       10.606720000000      14.206366000000      14.798496000000
       164    2       11.146279000000      13.726112000000       0.652016000000
       165    2       10.551604000000      13.408869000000      14.020861000000
       166    2       11.204043000000       0.047288000000      14.435914000000
       167    1        9.274294000000      14.360391000000       0.235116000000
       168    5        8.197955000000      14.330740000000       0.635231000000
       169    1       11.893898000000       3.128510000000       4.923565000000
       170    2       11.948756000000       2.133832000000       4.318097000000
       171    2       10.861779000000       3.316949000000       5.165365000000
       172    2       12.239849000000       3.958376000000       4.259579000000
       173    1       12.653035000000       2.976772000000       6.149494000000
       174    5       13.202979000000       2.608635000000       7.097452000000
       175    1        6.222303000000       8.966569000000      11.079927000000
       176    2        6.976625000000       8.358372000000      10.601197000000
       177    2        6.403770000000       8.941246000000      12.176688000000
       178    2        5.290057000000       8.552583000000      10.747211000000
       179    1        6.327028000000      10.380999000000      10.623202000000
       180    5        6.586633000000      11.461619000000      10.308357000000
       181    1        0.097721000000       5.450965000000       7.713297000000
       182    2        0.053986000000       6.579660000000       7.676441000000
       183    2       14.185394000000       5.010966000000       7.326345000000
       184    2        0.213543000000       5.157876000000       8.774123000000
       185    1        1.180311000000       4.963381000000       6.913895000000
       186    5        2.058811000000       4.701388000000       6.166574000000
       187    1       14.249727000000       3.346985000000      10.846253000000
       188    2       14.636883000000       4.329529000000      10.697478000000
       189    2       14.822105000000       2.888004000000      11.632915000000
       190    2       14.276094000000       2.757549000000       9.907156000000
       191    1       12.825823000000       3.459251000000      11.233952000000
       192    5       11.714373000000       3.417168000000      11.534168000000
       193    1        3.811443000000      13.826371000000       3.057592000000
       194    2        4.590098000000      14.528051000000       3.259231000000
       195    2        2.979673000000      14.007652000000       3.748789000000
       196    2        4.224054000000      12.836768000000       3.027237000000
       197    1        3.270088000000      13.968447000000       1.701050000000
       198    5        2.737736000000      13.907310000000       0.652135000000
       199    1        4.687443000000      13.970209000000      10.126042000000
       200    2        5.347349000000      13.531088000000      10.844113000000
       201    2        5.295020000000      14.248669000000       9.191427000000
       202    2        4.202971000000      14.858148000000      10.598339000000
       203    1        3.594543000000      13.058517000000       9.794471000000
       204    5        3.011871000000      12.142800000000       9.384945000000
       205    1        8.873164000000      11.705116000000       7.710603000000
       206    2        9.191067000000      10.720230000000       7.449109000000
       207    2        8.531468000000      11.756615000000       8.736871000000
       208    2        8.048748000000      11.969520000000       7.078796000000
       209    1       10.133177000000      12.574443000000       7.430153000000
       210    5       11.067757000000      13.247758000000       7.357504000000
       211    1       13.829858000000      14.567374000000       5.488091000000
       212    2       14.054892000000       0.599971000000       5.942744000000
       213    2       13.344518000000      14.755588000000       4.496554000000
       214    2       13.216619000000      13.985278000000       6.214481000000
       215    1       14.941738000000      13.694138000000       5.240100000000
       216    5        0.888130000000      13.072490000000       5.033449000000
       217    1       10.308625000000       1.408297000000       8.515213000000
       218    2       10.905122000000       0.493848000000       8.532449000000
       219    2       10.524588000000       1.922211000000       7.596067000000
       220    2       10.630546000000       2.009453000000       9.385143000000
       221    1        8.854850000000       1.197520000000       8.699244000000
       222    5        7.759547000000       1.183723000000       9.045246000000
       223    1        1.935940000000      10.451004000000       0.970872000000
       224    2        0.850353000000      10.587563000000       1.147496000000
       225    2        2.441566000000      11.434786000000       0.791947000000
       226    2        2.232179000000       9.868465000000       0.058880000000
       227    1        2.466309000000       9.813008000000       2.140909000000
       228    5        2.861116000000       9.213805000000       3.023425000000
       229    1        4.336062000000       5.905029000000      14.314312000000
       230    2        3.409706000000       5.607583000000      14.925147000000
       231    2        4.210353000000       5.439334000000      13.315634000000
       232    2        5.214653000000       5.619959000000      14.787413000000
       233    1        4.337726000000       7.330169000000      14.092908000000
       234    5        4.012939000000       8.428202000000      13.817834000000
