 #  generated by VMD
  
         234  atoms
           5  atom types
 
      0.000000000000      15.000000000000  xlo xhi
      0.000000000000      15.000000000000  ylo yhi
      0.000000000000      15.000000000000  zlo zhi
 
Masses
 
            1   12.01100000             # C
            2   1.00800000              # H
            3   35.45000000             # Cl
            4   79.90400000             # Br
            5   14.00700000             # N
 
Atoms # atomic
 
         1    1        7.500000000000       7.500000000000       7.500000000000
         2    2        8.459337000000       7.362047000000       7.882491000000
         3    2        6.852649000000       6.624755000000       7.758313000000
         4    2        7.038738000000       8.463921000000       7.835122000000
         5    3        7.728456000000       7.416423000000       5.647672000000
         6    4       13.640064000000      10.610360000000      14.412328000000
         7    1       13.383769000000       7.371221000000       8.300542000000
         8    2       12.693829000000       7.619426000000       7.478780000000
         9    2       12.901392000000       6.497646000000       8.712703000000
        10    2       13.281758000000       8.122417000000       8.995876000000
        11    1       14.730114000000       7.065355000000       7.878285000000
        12    5        0.807006000000       6.669768000000       7.683173000000
        13    1       14.643750000000       3.267570000000       9.499731000000
        14    2       13.647496000000       3.724889000000       9.237819000000
        15    2        0.084521000000       3.800314000000      10.328679000000
        16    2        0.347641000000       3.517396000000       8.675952000000
        17    1       14.585699000000       1.855792000000       9.845879000000
        18    5       14.699782000000       0.797415000000      10.252544000000
        19    1        4.502747000000       2.403108000000       7.350841000000
        20    2        3.938129000000       2.173713000000       6.479721000000
        21    2        5.470418000000       1.866649000000       7.204476000000
        22    2        3.969269000000       2.036969000000       8.257736000000
        23    1        4.772588000000       3.876939000000       7.360389000000
        24    5        4.955934000000       5.014765000000       7.338328000000
        25    1       12.255099000000      14.427212000000       0.181096000000
        26    2       11.643450000000      13.587792000000       0.562423000000
        27    2       11.603576000000       0.018494000000      14.523320000000
        28    2       13.109738000000      14.013059000000      14.598163000000
        29    1       12.813103000000       0.290230000000       1.269437000000
        30    5       13.054210000000       1.117116000000       2.088094000000
        31    1       13.452492000000      12.840362000000      11.293157000000
        32    2       13.891196000000      12.844085000000      10.334637000000
        33    2       14.159789000000      12.789810000000      12.130179000000
        34    2       12.852124000000      11.907687000000      11.364298000000
        35    1       12.527850000000      14.045030000000      11.503793000000
        36    5       11.757758000000      14.883287000000      11.821614000000
        37    1       14.415603000000       8.097916000000       2.548591000000
        38    2       14.996960000000       7.614799000000       1.777086000000
        39    2       13.611251000000       8.728002000000       2.139259000000
        40    2        0.151389000000       8.693668000000       3.071353000000
        41    1       13.879834000000       7.010406000000       3.346365000000
        42    5       13.595117000000       5.983209000000       3.842101000000
        43    1       12.435106000000      11.097723000000       8.280810000000
        44    2       12.324403000000      12.125912000000       8.701616000000
        45    2       13.362127000000      10.588883000000       8.611493000000
        46    2       12.448987000000      11.098951000000       7.193566000000
        47    1       11.266673000000      10.256214000000       8.801206000000
        48    5       10.683919000000       9.491588000000       9.441313000000
        49    1        5.601323000000      14.372174000000       9.673486000000
        50    2        5.857898000000      14.075238000000      10.697220000000
        51    2        4.779891000000       0.045250000000       9.762181000000
        52    2        5.338710000000      13.436120000000       9.089984000000
        53    1        6.677785000000       0.094781000000       9.030136000000
        54    5        7.390700000000       0.826634000000       8.457927000000
        55    1       10.787022000000       7.780008000000      12.472324000000
        56    2       10.400467000000       8.402251000000      11.580415000000
        57    2       10.016907000000       7.035768000000      12.728312000000
        58    2       10.973340000000       8.316707000000      13.385683000000
        59    1       12.017807000000       7.162267000000      11.907952000000
        60    5       12.939961000000       6.640566000000      11.470109000000
        61    1        8.379177000000       3.973890000000       7.264952000000
        62    2        7.624965000000       4.630422000000       6.894376000000
        63    2        8.030187000000       3.370968000000       8.130566000000
        64    2        9.187054000000       4.709173000000       7.455538000000
        65    1        8.812105000000       3.029693000000       6.261280000000
        66    5        9.055623000000       2.058897000000       5.630245000000
        67    1        9.903343000000      11.196891000000       1.258243000000
        68    2        9.495089000000      10.418272000000       1.863854000000
        69    2       10.954991000000      11.140493000000       1.428152000000
        70    2        9.624125000000      12.234030000000       1.619415000000
        71    1        9.591383000000      10.902427000000      14.831242000000
        72    5        9.488722000000      10.495392000000      13.750578000000
        73    1        3.595764000000      10.753148000000      10.876623000000
        74    2        3.951924000000      10.791334000000       9.852351000000
        75    2        4.432149000000      10.856650000000      11.585204000000
        76    2        3.050483000000       9.790477000000      10.879552000000
        77    1        2.642970000000      11.799732000000      11.134696000000
        78    5        1.916643000000      12.689591000000      11.393406000000
        79    1        6.780092000000       8.870035000000       2.440391000000
        80    2        7.322463000000       8.884544000000       1.438335000000
        81    2        5.767763000000       9.192907000000       2.341075000000
        82    2        7.231335000000       9.416299000000       3.218402000000
        83    1        6.581996000000       7.449330000000       2.724072000000
        84    5        6.420577000000       6.329248000000       2.889828000000
        85    1        7.394055000000      10.114638000000      10.637634000000
        86    2        6.494626000000       9.439308000000      10.568662000000
        87    2        7.754098000000      10.312098000000       9.614411000000
        88    2        8.250443000000       9.715605000000      11.281207000000
        89    1        7.019734000000      11.472341000000      11.132152000000
        90    5        6.703419000000      12.438043000000      11.726843000000
        91    1        1.522834000000       3.267037000000       2.331303000000
        92    2        1.650177000000       3.653402000000       1.327681000000
        93    2        0.836351000000       2.482154000000       2.205207000000
        94    2        1.065053000000       4.049734000000       2.910718000000
        95    1        2.808926000000       2.887274000000       2.908150000000
        96    5        3.766653000000       2.644613000000       3.502686000000
        97    1        6.626942000000       3.736124000000      11.949705000000
        98    2        6.831665000000       4.549582000000      11.252491000000
        99    2        6.545433000000       4.167729000000      12.953707000000
       100    2        7.489665000000       3.038751000000      11.992221000000
       101    1        5.400512000000       3.061032000000      11.542407000000
       102    5        4.530822000000       2.649365000000      10.911220000000
       103    1        1.834607000000       0.033617000000       4.373909000000
       104    2        1.132310000000      14.328604000000       3.871606000000
       105    2        2.554797000000       0.430475000000       3.678614000000
       106    2        2.356278000000      14.244943000000       4.981850000000
       107    1        1.185203000000       1.015854000000       5.192439000000
       108    5        0.837907000000       1.875203000000       5.945307000000
       109    1       10.779923000000       1.473439000000       8.654079000000
       110    2        9.943547000000       1.918923000000       9.127764000000
       111    2       11.696942000000       1.702423000000       9.199935000000
       112    2       10.803345000000       1.966838000000       7.674645000000
       113    1       10.606625000000       0.051580000000       8.504959000000
       114    5       10.685170000000      13.944578000000       8.189748000000
       115    1        3.722204000000       5.473480000000       0.198473000000
       116    2        3.213820000000       5.320769000000       1.137014000000
       117    2        3.212846000000       4.871348000000      14.419826000000
       118    2        4.656803000000       4.921818000000       0.343550000000
       119    1        3.879427000000       6.903503000000      14.823104000000
       120    5        3.988240000000       8.030554000000      14.527843000000
       121    1       11.271865000000      13.948155000000       4.753324000000
       122    2       11.464272000000      13.411568000000       3.846702000000
       123    2       10.438557000000      13.422229000000       5.199873000000
       124    2       10.969873000000      14.972222000000       4.513051000000
       125    1       12.354838000000      13.817221000000       5.765360000000
       126    5       13.102506000000      13.539269000000       6.573890000000
       127    1        3.799415000000      14.589808000000      13.644485000000
       128    2        4.556205000000      13.935604000000      13.954798000000
       129    2        3.000323000000      14.040235000000      13.049248000000
       130    2        4.169982000000       0.366087000000      12.896966000000
       131    1        3.171228000000       0.240547000000      14.800417000000
       132    5        2.521176000000       0.603253000000       0.705962000000
       133    1        3.563152000000       6.463082000000      10.157076000000
       134    2        3.407967000000       6.071759000000       9.180372000000
       135    2        3.197687000000       5.845541000000      10.967395000000
       136    2        3.018275000000       7.432885000000      10.135732000000
       137    1        5.009591000000       6.780421000000      10.453863000000
       138    5        6.063105000000       7.066132000000      10.800391000000
       139    1       14.436274000000       2.161470000000      13.445705000000
       140    2       14.474730000000       1.281833000000      12.877512000000
       141    2       14.160440000000       1.974428000000      14.493315000000
       142    2       13.671296000000       2.804026000000      13.021466000000
       143    1        0.651002000000       2.975861000000      13.434633000000
       144    5        1.648419000000       3.541773000000      13.563763000000
       145    1        8.514337000000      14.085318000000      14.256495000000
       146    2        9.180327000000      13.404817000000      13.743703000000
       147    2        8.290221000000      13.742075000000       0.265923000000
       148    2        7.619403000000      14.208180000000      13.626125000000
       149    1        9.115080000000       0.492274000000      14.235257000000
       150    5        9.529645000000       1.574311000000      14.400701000000
       151    1        5.147697000000      11.339590000000       5.166904000000
       152    2        4.088662000000      11.407358000000       4.912566000000
       153    2        5.575760000000      12.354760000000       5.143783000000
       154    2        5.667227000000      10.807885000000       4.360930000000
       155    1        5.483245000000      10.800210000000       6.423250000000
       156    5        5.633935000000      10.428957000000       7.510663000000
       157    1        9.986737000000       5.218341000000       2.710593000000
       158    2       10.230506000000       4.555707000000       1.878009000000
       159    2       10.812891000000       5.228449000000       3.438825000000
       160    2        8.979240000000       4.829059000000       3.037346000000
       161    1        9.804056000000       6.623935000000       2.250509000000
       162    5        9.849411000000       7.726430000000       1.869183000000
       163    1        1.216220000000      13.105939000000       8.463738000000
       164    2        0.402390000000      13.310800000000       7.705725000000
       165    2        1.076098000000      12.034493000000       8.798956000000
       166    2        1.104841000000      13.861754000000       9.310066000000
       167    1        2.493748000000      13.200141000000       7.827915000000
       168    5        3.540202000000      13.392424000000       7.351015000000
       169    1       14.363087000000      11.958810000000       2.562524000000
       170    2       14.276691000000      11.339788000000       1.692434000000
       171    2       13.551071000000      11.582523000000       3.278586000000
       172    2       14.283543000000      13.038019000000       2.332130000000
       173    1        0.620399000000      11.830191000000       3.304024000000
       174    5        1.646440000000      11.726308000000       3.938105000000
       175    1        0.660011000000       8.541439000000      12.477471000000
       176    2        1.744665000000       8.225412000000      12.615923000000
       177    2        0.473451000000       9.379930000000      13.170932000000
       178    2       14.951435000000       7.749971000000      12.687236000000
       179    1        0.550103000000       9.025153000000      11.088251000000
       180    5        0.534836000000       9.564039000000      10.067581000000
       181    1        7.407526000000       2.500119000000       2.233997000000
       182    2        7.288774000000       1.983041000000       3.194101000000
       183    2        8.452176000000       2.287642000000       2.014929000000
       184    2        7.190628000000       3.559744000000       2.291972000000
       185    1        6.568320000000       1.945153000000       1.164122000000
       186    5        5.884559000000       1.470335000000       0.320920000000
       187    1       12.685957000000       2.652383000000       5.481519000000
       188    2       13.537245000000       2.007138000000       5.652748000000
       189    2       11.686312000000       2.186194000000       5.358821000000
       190    2       12.937776000000       3.203676000000       4.590087000000
       191    1       12.435509000000       3.589861000000       6.560469000000
       192    5       12.147534000000       4.294731000000       7.454149000000
       193    1        2.881714000000      11.272702000000      14.562458000000
       194    2        3.484936000000      11.891860000000      14.007545000000
       195    2        2.707707000000      10.299033000000      14.011697000000
       196    2        1.911977000000      11.665048000000      14.859225000000
       197    1        3.687384000000      11.102038000000       0.741321000000
       198    5        4.529681000000      11.033690000000       1.555591000000
       199    1        7.805866000000      14.120968000000       5.688091000000
       200    2        7.968084000000      13.166667000000       6.193642000000
       201    2        8.664949000000      14.776551000000       6.100370000000
       202    2        6.918108000000      14.680302000000       6.032321000000
       203    1        7.935463000000      14.006564000000       4.257360000000
       204    5        8.063190000000      13.800170000000       3.125705000000
       205    1        1.984128000000       9.834110000000       6.604802000000
       206    2        1.916182000000       9.673504000000       7.710720000000
       207    2        2.649519000000       9.054539000000       6.269491000000
       208    2        2.458842000000      10.797987000000       6.433831000000
       209    1        0.685577000000       9.713655000000       5.977510000000
       210    5       14.596249000000       9.582669000000       5.543909000000
       211    1        3.547480000000       6.244238000000       4.819645000000
       212    2        2.725275000000       5.634926000000       5.305157000000
       213    2        4.237815000000       5.693079000000       4.227796000000
       214    2        4.072930000000       6.741894000000       5.657126000000
       215    1        2.901492000000       7.300479000000       3.991753000000
       216    5        2.442591000000       8.182801000000       3.374879000000
       217    1       11.123994000000       8.110234000000       5.589277000000
       218    2       10.349654000000       7.621222000000       4.929066000000
       219    2       12.093805000000       7.675930000000       5.388207000000
       220    2       10.802923000000       7.954642000000       6.604221000000
       221    1       11.289942000000       9.558798000000       5.262613000000
       222    5       11.440054000000      10.696711000000       4.968757000000
       223    1        7.466405000000       7.733629000000      13.762807000000
       224    2        7.688627000000       8.472936000000      14.573107000000
       225    2        7.998330000000       8.011158000000      12.832201000000
       226    2        6.374840000000       7.742835000000      13.656755000000
       227    1        7.987418000000       6.450146000000      14.220165000000
       228    5        8.456643000000       5.419251000000      14.505273000000
       229    1       10.886463000000       3.969728000000      12.490408000000
       230    2       11.924054000000       4.354578000000      12.293607000000
       231    2       10.498513000000       4.506245000000      13.367008000000
       232    2       10.925463000000       2.883161000000      12.805104000000
       233    1       10.137927000000       4.194004000000      11.313864000000
       234    5        9.632042000000       4.390252000000      10.284831000000
