 # File generated with Atomsk by rdavid on 2024-08-26 16:56:28
  
          16  atoms
           2  atom types
 
      0.000000000000      20.000000000000  xlo xhi
      0.000000000000      20.000000000000  ylo yhi
      0.000000000000      20.000000000000  zlo zhi
 
Masses
 
            1   12.01100000             # C
            2   1.00800000              # H
 
Atoms # atomic
 
         1    1        8.672423000000       9.643799000000       9.585367000000
         2    2        7.920487000000       8.999847000000       9.003841000000
         3    2        8.163383000000      10.607055000000       9.821354000000
         4    1        9.822374000000      10.072773000000       8.630744000000
         5    2        9.480360000000      10.584936000000       7.710755000000
         6    2       10.428313000000       9.219909000000       8.296670000000
         7    1        9.242449000000       8.863813000000      10.775004000000
         8    2        9.616731000000       7.877082000000      10.446360000000
         9    2        8.458161000000       8.740817000000      11.578832000000
        10    1       10.381330000000       9.599596000000      11.427342000000
        11    2       10.699511000000       9.277832000000      12.457583000000
        12    1       10.956055000000      10.709654000000      10.864376000000
        13    2       11.851407000000      11.132137000000      11.417493000000
        14    1       10.806159000000      11.097155000000       9.404295000000
        15    2       11.870573000000      10.980072000000       9.010580000000
        16    2       10.637380000000      12.168723000000       9.238313000000
