 # File generated with Atomsk by rdavid on 2024-08-26 16:56:35
  
          16  atoms
           2  atom types
 
      0.000000000000      20.000000000000  xlo xhi
      0.000000000000      20.000000000000  ylo yhi
      0.000000000000      20.000000000000  zlo zhi
 
Masses
 
            1   12.01100000             # C
            2   1.00800000              # H
 
Atoms # atomic
 
         1    1        8.116278000000      11.406504000000      10.655949000000
         2    2        9.119088000000      11.243899000000      11.105393000000
         3    2        7.627528000000      12.339127000000      10.883857000000
         4    1        7.515775000000      10.414935000000       9.883732000000
         5    2        6.536716000000      10.554333000000       9.411366000000
         6    2        8.041814000000       9.476833000000       9.683805000000
         7    1       10.711524000000      10.918441000000       8.221564000000
         8    2       10.764661000000      11.969725000000       7.845369000000
         9    2        9.986976000000      10.142392000000       7.780867000000
        10    1       11.423501000000      10.632094000000       9.364009000000
        11    2       12.074656000000      11.441806000000       9.693735000000
        12    1       11.471154000000       9.322998000000      10.091292000000
        13    2       12.433719000000       9.084624000000      10.684061000000
        14    1       10.494183000000       8.341340000000       9.881631000000
        15    2       10.561650000000       7.300425000000      10.293477000000
        16    2        9.636644000000       8.549760000000       9.207471000000
