# LAMMPS data 
391 atoms
4 atom types
0.0 17.769 xlo xhi
0.0 17.769 ylo yhi
0.0 17.769 zlo zhi
0.0 0.0 0.0 xy xz yz

Masses

  1  15.999 #O
  2  1.008  #H
  3  12.011 #C
  4  14.007 #N

Atoms # metal

1 1 10.12035591726421 14.2450853609251 10.140945673328098
2 2 9.543340558303 13.88571476748758 9.448781882648099
3 2 10.03976222818121 15.26689374444808 10.05749495648831
4 1 9.405912707688788 12.94970082666748 12.140547596755098
5 2 8.396666461953998 13.069142473090999 12.090804409837888
6 2 9.796127982342789 13.132458526267499 13.036068897465999
7 2 9.750143011971 13.673536402543188 11.276612883709099
8 3 11.087584963347789 11.54554021265389 16.36522274006869
9 3 10.713245534171 12.661347402343589 15.495388230308398
10 4 10.518243732285999 13.44498476554419 14.664563606114887
11 2 11.844202538205788 11.8205541378681 17.047417890466708
12 2 10.17967562415079 11.155219102557888 16.745854615449588
13 2 11.41117682726279 10.75563739128689 15.678239594274588
14 3 8.353644354780998 0.4438262177990999 12.630977922261689
15 3 7.127540759210999 0.7919295700812999 11.89717846869889
16 4 6.13930179035879 1.2216743823223 11.498708558746099
17 2 9.000245458502791 17.609397737360187 11.93205230519231
18 2 8.948810492045208 1.2748143577505 13.01936647718677
19 2 7.999783554453999 17.544817479828996 13.39673385835918
20 3 17.547031557275638 1.0535124485285 2.7608286317840998
21 3 17.554310918976398 17.414016515415618 3.3032135757684897
22 4 17.758882890704246 16.373070438092988 3.7689853016434998
23 2 0.04217013186489999 1.0747324546494998 1.6912133207553
24 2 16.45845318092649 1.4126279785508 2.6620148421835896
25 2 0.35233941584824996 1.6565786723607998 3.4002334546270996
26 3 16.03174161245321 8.8431914835241 17.469778034742156
27 3 15.273588894508999 7.98909840822968 16.636934070315288
28 4 14.560258015429 7.40091846849189 15.926804184178577
29 2 15.450175329486 9.8193646828111 0.05331513308470999
30 2 16.41528713755237 8.334546349272099 0.5895298708004999
31 2 16.86979744322137 9.1868920814191 16.85954780984088
32 3 2.9579153918764995 15.630994123788579 7.122782926915889
33 3 3.8525900090513994 14.56708334308358 6.775801430318889
34 4 4.6676340396655 13.757602023300999 6.482055690225099
35 2 1.9600141763468997 15.18241060287158 7.106166762521889
36 2 3.20861256593679 16.097094468711 8.13372253972268
37 2 2.9359333705731 16.418410870623 6.3728335140810985
38 3 2.2478347192203194 3.7878552317748895 7.082349025476999
39 3 2.6140242901859 5.1608589500181 6.692239057087789
40 4 2.9733890626741095 6.2490589646621 6.419606958495789
41 2 1.91958450832569 3.8187597100160997 8.170654346385788
42 2 1.49709048221611 3.39213757249131 6.388121443677999
43 2 3.21416363486969 3.1490859507611 7.131509588285999
44 3 12.105827750829787 16.76794247219499 14.869170503538598
45 3 11.67042021326458 16.37674186957597 13.45697539194558
46 4 11.428481980384209 15.915967693272199 12.374021110984309
47 2 11.712226271209 15.991718881706488 15.547036455181608
48 2 13.147619453334 16.9069843132997 14.970152332168478
49 2 11.751491220191 17.76097261150654 15.126530018672788
50 3 1.7921591653349 10.26720259303921 5.305107365692
51 3 1.43232025006653 11.60755554824821 5.707123292128999
52 4 0.8976395970825299 12.545415259176789 6.195447492339789
53 2 2.5339073897691096 9.869260801942 5.975680726204
54 2 0.9934206720925299 9.55201853536979 5.271165939442599
55 2 2.1820029575874798 10.394468124512578 4.325065880999899
56 3 9.732255763918578 3.4921779948646 10.90555329487989
57 3 9.238375732179998 4.0042521974374 9.661722262774889
58 4 8.756348211591 4.2472186216368 8.611993431297888
59 2 10.442942344480208 4.2007092366498995 11.341119585608098
60 2 8.973205032249 3.3094742713399996 11.656085861000099
61 2 10.345255702336999 2.6250100090654995 10.672080309827889
62 3 15.115840109853579 8.34078481940079 12.68709134443288
63 3 16.484346350989 7.996026396263 12.9625344323644
64 4 17.556406460728 7.669047798204 13.175152543570299
65 2 14.641910588109209 7.581627193934789 12.0023794272241
66 2 14.58893889103379 8.371160120432 13.666101991919898
67 2 15.066098510467999 9.31526412243858 12.286282471211889
68 3 2.9614825754491094 4.2162776301681 16.48428761231869
69 3 2.1958155411229 3.0281160405551 16.865882590221787
70 4 1.6435116995142698 2.1342828151441 17.32461255496333
71 2 2.7814559594298998 4.48192406041089 15.47664371517578
72 2 2.7265818702845297 5.030258543767309 17.23468206318709
73 2 4.070953397226269 4.05424303928889 16.64756524046419
74 3 1.4993124973208998 9.848574735625888 9.522072926233099
75 3 1.9170973754386897 11.175487118878099 10.0235212504291
76 4 2.3048779057494797 12.2335240325521 10.30689405885247
77 2 0.42524310171553 9.7019931776331 9.77766446030868
78 2 1.60832406093532 9.857201382503309 8.4412284748081
79 2 2.1970315903514797 9.08163767599568 9.89371355163889
80 3 2.5334835188238998 14.298664024260388 3.5191871996629995
81 3 3.09742714234369 14.733313780060879 2.2720911441723
82 4 3.5475463355241095 15.0100851027895 1.2131705045575998
83 2 3.19897836565153 13.69649740168509 4.1769915140977
84 2 2.03849221494432 15.207864555849788 3.9229070767161995
85 2 1.6442530767854797 13.727957515996799 3.282909575398
86 3 6.1559655807016895 12.038310030605889 8.621571009621679
87 3 7.600090715968899 12.261728648667889 8.6716851497631
88 4 8.7626930463389 12.53934559657809 8.662371101689889
89 2 5.850791200403529 12.245377072878888 7.549035698748099
90 2 5.87698494312132 10.958946746191678 8.728201275791099
91 2 5.715477941920479 12.77687207905869 9.344638749365679
92 3 10.36652703864737 8.413123344007788 2.0400257704988998
93 3 10.13480192592 8.21722194086579 3.4510238832429
94 4 9.808564175954999 8.00147639234879 4.536101752347899
95 2 10.533430059858578 7.474945597575999 1.5502722626438998
96 2 9.538683269677788 9.03024980630979 1.6490701769281098
97 2 11.28692707670921 8.963415253864 1.9327086323108997
98 3 5.31891836169579 1.7704734832690998 8.46800431245689
99 3 5.2379124435661994 0.968288458858 7.1891951959481
100 4 5.195303094617 0.4554532994572199 6.141583073311099
101 2 4.4715103820953 1.6134771886063 9.117622255452888
102 2 6.130094636081999 1.2579653553840997 9.0526398232421
103 2 5.497780258675789 2.8116296439440998 8.198758948008889
104 3 14.344036207422999 1.6711045867752998 13.566781250552209
105 3 13.493172171463998 2.2875113680717 12.471753791544788
106 4 12.900864649488208 2.8448460974158 11.653275930014999
107 2 14.443943277139368 0.5666535400122 13.405011248277999
108 2 15.365771564490998 2.0779042751906998 13.472110389328789
109 2 13.871956689204788 1.7312561602359997 14.614816185779999
110 3 3.4894966539415297 0.8932992856061099 3.3005153011746997
111 3 2.6821839023655296 0.8868962413651099 4.550971631948899
112 4 2.12008975319469 0.7096742645588999 5.565038682066789
113 2 3.6989963238489 1.9737743713385298 2.9960796522616997
114 2 4.52599340928248 0.52663133844269 3.5938911463987
115 2 3.0550945530753197 0.26553636138311 2.5452471282022
116 3 14.964178979821998 9.30373388020989 3.4867380531457997
117 3 14.029281073737788 9.869054952007309 2.5302237872103
118 4 13.202018870521998 10.21592955480789 1.8094897189623997
119 2 15.697195780291208 10.04241234764889 3.9374541582191
120 2 14.370600903365 8.73455193148831 4.2391486691843
121 2 15.593106093906998 8.434560312784889 3.0836426052004
122 3 12.591613487964208 11.541460785541998 11.016146039997789
123 3 12.036771183279209 10.790505406831 12.112494325321368
124 4 11.758635112526 10.21698261745579 13.06903557929458
125 2 11.715772287693209 11.858120428005998 10.44812828113821
126 2 13.272346521730999 12.294744543976998 11.381384679517
127 2 13.197362111073998 10.944337750955208 10.341551461866999
128 3 10.412614140220688 7.281588478459679 14.705733063875678
129 3 9.55444692958648 6.419877368050099 15.553660695496388
130 4 8.96277442026269 5.716178043369309 16.261128820266798
131 2 11.455622421130688 7.113152960048309 15.03568193361441
132 2 10.37874785713511 7.074469047642889 13.641220079505699
133 2 10.0206001922299 8.330788661903888 14.825131317767978
134 3 10.546029769228678 11.394083874202579 5.920752131805999
135 3 9.780364322434098 12.399996832691578 5.168177470832399
136 4 9.17599156007031 13.161325143073 4.507378013389099
137 2 10.26133295942589 10.33096633013537 5.724744364044789
138 2 11.58242386419089 11.670897531107999 5.687437899917
139 2 10.44818543227689 11.502037612574208 7.023663272887999
140 3 1.8116339450173198 9.54106562547721 0.8307553019789999
141 3 2.00245471776611 9.91868648253321 17.22770115743277
142 4 2.08627480029848 10.24497715021921 16.1178540906593
143 2 1.28906986261069 8.571189634989208 0.8617227523082
144 2 2.83019159293927 9.261500247079788 1.2837257019668997
145 2 1.19466570670111 10.300593145812998 1.3750987308176
146 3 6.9642848273311095 6.382141741204999 1.1419432520916
147 3 6.248891744663739 5.1315954503051 0.9379401458644999
148 4 5.80559682078348 4.0630120348358 0.8485250726907999
149 2 7.89129799298632 6.281650989025999 1.6509641021627
150 2 7.184792970738109 6.899042039933 0.24453860969030997
151 2 6.266195310253529 7.1027752657829994 1.6791427885951997
152 3 16.82561220454079 15.7812391756062 7.045311383371889
153 3 15.491132587185579 16.10454422547338 6.9452445021381
154 4 14.429287185131209 16.5448524731804 6.787549164380889
155 2 17.043210931647206 14.70061062848288 7.051979545395099
156 2 17.390614711657786 16.16169007238128 6.212439372552889
157 2 17.122269477644 16.22013293263089 7.9930682956591
158 3 4.340713651099599 14.5085203596073 11.715247343900888
159 3 5.67648393167 13.9793325660631 11.856537658970888
160 4 6.685889459744999 13.461055348234678 11.95628756305589
161 2 4.408914009924399 14.925712559249888 10.717642996786099
162 2 3.6016383007530997 13.715214399602788 11.829920574485099
163 2 4.2665865075228 15.309530081434989 12.40254217507168
164 3 2.9916456764191097 0.8073656692969999 12.50551582672
165 3 2.32572960453232 2.0689135543928 12.930444597172789
166 4 1.7737437984268998 3.0058905977351 13.30192594023837
167 2 2.3492250726563197 17.768404905420986 12.146627842897999
168 2 3.66787964554648 0.9723472480586999 11.626129139141998
169 2 3.5193422485855295 0.42008838651291996 13.30314410617579
170 3 9.9009003073279 2.4648016087379996 16.8216174457825
171 3 10.219887271161479 2.4792534383430995 15.382990461727188
172 4 10.36398275462169 2.3623047457558894 14.213450618134088
173 2 9.46962141035511 3.3460510000952 17.26205904614644
174 2 9.22440069124111 1.5755510579655998 17.08954886321807
175 2 10.86866064733032 2.2724298175867 17.257656291759236
176 3 14.375364027432209 13.465125779333999 14.735859651618188
177 3 14.76197983870379 12.283313787063788 15.47586582467708
178 4 15.125207075647788 11.344871452027 16.05109256466849
179 2 13.29636957953337 13.376541514379998 14.40605524725779
180 2 14.645455546238997 14.384200228484788 15.205129238851297
181 2 14.926448644749 13.509100405484999 13.7875640369312
182 3 17.146612158481208 6.436117816624999 5.035364574666599
183 3 17.752465558678576 5.141274101475999 4.764245922895199
184 4 0.3928029512109 4.1048011591095 4.402637968213799
185 2 0.13519895620569 7.2324765999539995 5.0964792506495
186 2 16.447991347484788 6.610693378203999 4.185209636169
187 2 16.428941497102 6.397646633458 5.816927563204
188 3 14.451189300675898 17.38125197928126 0.7924375802028999
189 3 13.683088580360899 0.45310534017645 17.612338904293367
190 4 13.082948706499899 1.1512197285828998 16.9068520189972
191 2 15.460965252797898 17.186141166890998 0.43032267375432
192 2 14.539086693611319 0.20508262773549998 1.7209107457805
193 2 13.97196589012269 16.42688723117278 0.8513085448154
194 3 15.025561948650369 2.6950360292648 5.302038137873999
195 3 14.170095129318788 3.4500443762271895 6.23264917938
196 4 13.482483320999208 4.1485270719718 6.84596503659279
197 2 14.574703494907578 2.8496510264826 4.3241927386034
198 2 15.988930117809788 3.108704437866 5.402687643216
199 2 15.157434496913998 1.6594362292947997 5.537416160882
200 3 10.1469677099779 7.6395726276069995 10.686098743297999
201 3 9.26202413251769 8.515889558189789 9.86756584733837
202 4 8.54911765356011 9.183553502401208 9.273300369685579
203 2 10.962428732233478 7.156063410829999 10.091779818746998
204 2 10.61745969656611 8.29416430719979 11.459014976224
205 2 9.69769784621953 6.76775264495479 11.320264711761999
206 3 0.16610343444689998 17.68805887127227 15.089096022837388
207 3 16.568961257690788 17.250848956129797 15.050407877014289
208 4 15.480972913930788 16.870407055367288 14.938191087038899
209 2 0.4650885580968999 0.6456014879720999 14.224272821255799
210 2 0.17091841788069 0.6618472283190999 15.982203746293479
211 2 0.9013443667297399 16.85345645097657 15.392955397768699
212 3 16.73300566361358 4.171361068583299 14.932808296458777
213 3 16.217641037148997 3.1610665227954997 15.803331265769279
214 4 15.853249610343 2.3377144099843994 16.52390181825929
215 2 17.22016779067121 5.017758848889899 15.414492381038489
216 2 17.53508114834221 3.628726882133 14.283413137068187
217 2 15.927122748858999 4.4590112163951 14.245925694334579
218 3 17.68478432269679 1.1319788452273 10.041666736959998
219 3 16.651301760743998 1.6300404352792999 9.07702907167379
220 4 15.957656273876 2.0406766584672 8.23563730777379
221 2 17.103271486627786 0.46042333181353995 10.81622289005979
222 2 0.57108169490548 0.5432162813813 9.44263813524
223 2 0.4301639205913199 2.0070209879111998 10.472946163109999
224 3 3.53574621291832 6.971492220931309 13.372784885366208
225 3 3.98475095889448 7.12701634459589 14.834689845712209
226 4 4.44291311648969 7.340222371682099 15.879972530270788
227 2 4.230185994778529 7.518766233158889 12.73004518774579
228 2 3.5958057095444795 5.888742202373099 13.096447487949789
229 2 2.5006745318039 7.3435567172823095 13.232816454966787
230 3 6.478448289184529 9.448305623159099 12.536239855532598
231 3 5.319866647256109 10.34494295860589 12.704585942995479
232 4 4.3462869454753195 11.010542582521099 12.9995927123807
233 2 6.278313468362529 8.384870043588679 12.27024787257168
234 2 6.9875151776729 9.73390203421889 11.582371475647099
235 2 7.1466922116181095 9.572290785107679 13.35911465050028
236 3 6.082040053641899 5.8167158923199995 9.1635553664581
237 3 5.325634678845109 6.993023912428999 9.55694517519489
238 4 4.711472667273529 7.864684083563789 10.01246197591731
239 2 7.1632014822156895 6.055056778526789 8.94119404446168
240 2 6.204121235988899 5.1785493441484 10.06955860934468
241 2 5.655153327512109 5.3049486125289995 8.26289522586089
242 3 0.038360585130109995 13.298656683434988 17.32066436379952
243 3 16.667546971913787 14.011119711890588 17.73173398312241
244 4 15.764611369313577 14.604379752844379 0.33742614371602997
245 2 0.44323301014669 13.729872079142579 16.37152471146258
246 2 0.84688938593469 13.34904440819398 0.27480172515299994
247 2 17.50544775375942 12.282367089035098 17.1147498694899
248 3 12.553035940177999 4.4248845781221995 0.7242795555548999
249 3 13.127510719354 5.457774461599789 1.5982421767303998
250 4 13.662932749609208 6.21179906812879 2.2668258309328
251 2 11.961415819397999 3.7166814262070997 1.3187519414967999
252 2 11.916753262874 4.8488296081416 17.75746416660424
253 2 13.383473735830998 3.8866319789706996 0.19292372298132998
254 3 5.973299428759 7.569562482723999 5.912073625562
255 3 5.527679300218 8.184307647580999 4.6654538295603
256 4 5.2577936313459 8.747616787625999 3.6924445808118898
257 2 5.35950625370279 6.628897074227999 6.01658559535979
258 2 6.97831225681379 7.271476960330999 5.855398746370999
259 2 5.784859424278 8.28977213635679 6.782410853671789
260 3 16.137576525276 13.129045862440208 4.0189051143823
261 3 16.926579216208786 12.322049558835788 3.1401798983167994
262 4 17.484280136182207 11.580830511611579 2.4480213994088995
263 2 15.937706822236208 13.989011217234 3.3791933687574995
264 2 15.36788721497658 12.513559320312 4.4400507969608
265 2 16.726973043419576 13.559266934170209 4.80541008888389
266 3 13.373207697956998 7.745513905049 6.889574530468889
267 3 13.478143009522789 8.286385931389999 8.2802527675261
268 4 13.576729252923 8.733223696691208 9.3611501366721
269 2 12.315117866562 7.5885599445629985 6.605352921800679
270 2 13.85301161590958 8.482975264904999 6.134914911287889
271 2 13.839519184586209 6.7760083386079994 6.7900357680906795
272 3 6.805959768694 2.5678059526645 4.3275794727473995
273 3 6.16740110020979 3.4668515735939995 5.268356008457499
274 4 5.734799260211999 4.1183375121412995 6.147134142244
275 2 6.4544273480909995 2.5811412183564997 3.2564560066700996
276 2 7.936758548743 2.6488547341480997 4.2464195640497
277 2 6.464375879638999 1.5536484132437 4.706729651940299
278 3 16.26918342658021 12.29897743247979 8.5428304991281
279 3 15.961941550922578 11.30528740918737 7.49839291057389
280 4 15.81319142472321 10.57597749507421 6.5912233611164694
281 2 17.29435737715879 12.54911844129237 8.49684447040189
282 2 15.71418131037779 13.212284908395999 8.324014664438678
283 2 15.934637594418207 11.90675075525058 9.55429875996768
284 3 0.24405176665710998 14.974931331551987 12.246589417867
285 3 1.00405660483632 15.63005218835478 11.193209263641
286 4 1.6762169678011098 16.240373960913388 10.465431846728
287 2 17.423530592474208 14.193341884154089 11.77530313628658
288 2 0.96436778490911 14.641501534125878 13.033369035340579
289 2 17.34161396036621 15.729669798137278 12.741898757249789
290 3 7.19172307548027 4.0080569815773 13.957366949253208
291 3 7.337089642598899 5.153027127310099 13.035275660828209
292 4 7.557703092270689 6.058285288684999 12.32538337525879
293 2 6.12045778991069 3.7577085352984 14.039547111611789
294 2 7.71444644022711 3.2861322646068993 13.47396145120937
295 2 7.63215779654048 4.1658629173714 14.98015960238679
296 3 14.625003376249708 4.9561890805064 9.617107861376999
297 3 15.566699092773579 4.814142042026099 10.736211825084998
298 4 16.32052261196278 4.670967326911289 11.60496257991921
299 2 13.684886195343267 4.6340630374631 9.982663478045
300 2 14.560363850871 5.99372513988779 9.295897294907
301 2 14.86951923131999 4.2575111183712995 8.855040290433209
302 3 11.03958859040079 0.44307637369252995 2.0066611474084
303 3 12.051005521050998 1.3466448722359 2.6677410687729997
304 4 12.736766267489998 2.1743309463969 3.0544955244736
305 2 10.24000129691358 1.0877189925601098 1.7531270543253
306 2 11.443350272453578 0.10482365517447999 1.0702714907692
307 2 10.803998896508789 17.419350092515206 2.6860188496064
308 3 1.5108750193593998 6.248577413400999 10.25190937167021
309 3 0.7452720154756 6.603337814984999 9.049247268148788
310 4 0.00845201839812 6.898830369048999 8.19134517529679
311 2 1.8363242952814998 5.1810841029842996 10.26619609798579
312 2 2.4113494187559 6.856178685923 10.23476297171179
313 2 0.9278751953302999 6.458978272096999 11.161564466483
314 3 6.370546939356689 15.4391896106064 3.5229919838029
315 3 7.414561186142899 16.47979913122347 3.7373722551180997
316 4 8.117944062852109 17.33179507723466 4.0700447999567
317 2 5.57879411446353 15.68408118149578 4.311889368470899
318 2 5.90672258561448 15.60745632148778 2.5408337902707996
319 2 6.7457346396011095 14.367890986872588 3.6603023570764894
320 3 5.10483972139029 0.47776605651686993 16.50225794119308
321 3 5.635578533336999 17.232772262636196 15.546405146770079
322 4 5.991820631108999 16.571803468485697 14.64568362161651
323 2 5.460209205943 0.24730832320744997 17.53323431987931
324 2 5.467405486821789 1.4666252210592 16.205463611192478
325 2 4.0369130148386 0.35431642190480994 16.61964055909249
326 3 9.536250112866208 0.64178135769311 7.0785442413371
327 3 9.492644323230579 17.552173043047997 8.271414449764679
328 4 9.332780946443998 16.864718400359788 9.146569836371519
329 2 8.866575824434 0.19325075449711 6.3002833185900995
330 2 9.069091942701 1.6594939096106898 7.339375158968889
331 2 10.524487494186788 0.75412462102169 6.66986015287689
332 3 12.982357410651 17.729414599410976 9.74993028273258
333 3 14.26338801308737 17.148440994918968 10.173114355924
334 4 15.105998472101998 16.478598428133978 10.594761698497578
335 2 12.842919215816 0.18358374522482998 8.653317408803998
336 2 12.194624215844998 17.06133419273529 10.04468357623421
337 2 12.755551000090579 0.9303199940404998 10.272811342288
338 3 4.1582004313706 13.625862827694288 15.690104276499998
339 3 3.3834580078928895 14.77111237899397 15.056695031446298
340 4 2.731718593462 15.630280263732288 14.58700210244519
341 2 5.1797558681872 14.017533868852999 15.841570669318298
342 2 3.6740032842205994 13.397533445123488 16.667631640267388
343 2 4.1442989460639 12.786313129662298 14.953943634226178
344 3 16.818892183151 4.4238950167394995 1.1910826478121999
345 3 17.720451925005207 5.465130024818789 0.6272919565061
346 4 0.63098455507748 6.256726742434999 0.12292892423742
347 2 16.93028451503321 4.5083675747718 2.28949525343199
348 2 15.775937349139209 4.519935388582399 0.8167744400907999
349 2 17.22402919677258 3.4290048195347995 0.8856627292885999
350 3 3.2006542698755998 5.728982544319679 2.78374253415431
351 3 2.2253595047572 6.73722441170989 3.0620892174370997
352 4 1.4955659226740998 7.640371685194099 3.23459992954268
353 2 2.5994031238736 4.8161534446013095 2.8319500488080998
354 2 3.5192507009282 5.7704710959381 1.7356001759528898
355 2 3.9457675321881993 5.8203725068411 3.5200391749710995
356 3 0.61315392898653 11.25459805341868 13.737276326664897
357 3 17.256045476331998 11.286190991210098 12.787159813198299
358 4 16.39295691764479 11.314606749032679 12.02253949139347
359 2 0.31903617731410994 11.6753479114441 14.726873693415179
360 2 0.91822247384269 10.2510674507291 14.00083250692819
361 2 1.49666714044811 11.76028032447189 13.3186124852013
362 3 7.31835835689653 15.428479063875999 6.973338520216999
363 3 6.722080418314109 15.406093809538579 8.293953165492999
364 4 6.330171776588109 15.244801654284998 9.388132353432788
365 2 8.39406978938453 15.566011691577788 6.979158940349789
366 2 7.10271864382153 14.476277063024789 6.506921727322999
367 2 6.841833750114319 16.224096999110998 6.441462506445999
368 3 5.45729396869311 9.952346386506889 17.442255528050058
369 3 6.890833972228689 9.77269072371189 16.900898775384697
370 4 7.985860902058899 9.65405025158431 16.5947433005392
371 2 5.01627609434748 8.9945361655841 0.04320626084207999
372 2 5.5538143042654795 10.74595291916668 0.51947104161418
373 2 4.74348471341527 10.315151340037309 16.71662233719198
374 3 10.615505445129578 4.182775421003 5.1866827978661
375 3 10.133373147453 4.1781080780107995 3.7736208940030993
376 4 9.800890048055578 4.131899794856389 2.6775784731069
377 2 11.188764175076999 3.3031453119083998 5.350404934867999
378 2 11.231522222822209 5.11406328016059 5.374059156154999
379 2 9.69897051740958 4.2078742960732995 5.872173663928
380 3 8.321629133576 14.888489705121279 16.717057320858597
381 3 8.536051739068 16.295905288153577 16.447975472168487
382 4 8.698985402026999 17.45210245757374 16.42638451282328
383 2 9.264304357115579 14.440033186734677 17.066556642620778
384 2 7.489497970851 14.705934151215478 17.374425064095046
385 2 8.059951003231 14.45633184480268 15.773411586315879
386 3 13.046228570720789 13.795067240591788 2.8753954977490994
387 3 12.10386979515279 14.477970959274 2.0106035176229
388 4 11.40339792227579 14.77568552844279 1.1455786995242998
389 2 13.779298818088208 14.507233400632579 3.3128027959909
390 2 12.498319545841207 13.333942748975 3.6999488428268994
391 2 13.555720917685997 13.075280928726999 2.2340962204943
