 #  generated by VMD

         193  atoms
           2  atom types

      0.000000000000      12.420000000000  xlo xhi
      0.000000000000      12.420000000000  ylo yhi
      0.000000000000      12.420000000000  zlo zhi

Masses

            1   15.99900000             # O
            2   1.00800000              # H

Atoms # atomic

         1    1       13.747760000000      11.700690000000      -3.115310000000
         2    2       13.450940000000      12.435400000000      -2.559650000000
         3    2       12.941980000000      11.578080000000      -3.646690000000
         4    2        4.656010000000      11.778370000000       4.908220000000
         5    1       16.185040000000      10.781720000000       8.269190000000
         6    2       16.199381000000      10.912000000000       7.263490000000
         7    2       15.399160000000      11.095420000000       8.681470000000
         8    1        6.587460000000       7.543050000000       5.494080000000
         9    2        7.279890000000       8.111810000000       6.146710000000
        10    2        9.042160000000      11.996180000000       5.643940000000
        11    1        8.157900000000       6.380610000000       3.220600000000
        12    2        9.003900000000      10.052570000000       2.181130000000
        13    2       -6.466440000000      13.211970000000       3.246000000000
        14    1        2.692910000000      -4.056990000000       8.045720000000
        15    2        7.778320000000      -5.630550000000       2.410400000000
        16    2        3.531520000000      -4.389610000000       7.627080000000
        17    1       11.423610000000      11.526060000000       0.699330000000
        18    2       12.337560000000      11.490400000000       1.163660000000
        19    2       11.561150000000      14.805580000000       0.244900000000
        20    1        2.662930000000       7.560620000000      13.789830000000
        21    2       10.376420000000      -1.755490000000      14.458920000000
        22    2        0.905190000000      -1.868310000000       5.068040000000
        23    1        3.711340000000      15.129440000000       5.140260000000
        24    2        3.229430000000      15.904530000000       1.960040000000
        25    2        4.563890000000      14.586560000000       4.786050000000
        26    1        6.414580000000      26.008801000000       1.683870000000
        27    2        5.986530000000      26.493570000000       0.902630000000
        28    2        6.942170000000      26.803410000000       1.789240000000
        29    1        8.736290000000      11.483360000000       7.621850000000
        30    2        8.487470000000      11.994970000000       8.323320000000
        31    2        8.096780000000       9.896350000000      12.661040000000
        32    1        5.643410000000      12.829530000000       4.160200000000
        33    2        6.441670000000      12.532080000000       4.568450000000
        34    2       10.665090000000      11.681380000000       7.913580000000
        35    1        0.038300000000       2.673000000000       0.440450000000
        36    2        0.360000000000       2.141040000000       1.171650000000
        37    2        3.800590000000       1.316490000000       1.454430000000
        38    1        2.063010000000       9.783590000000      -1.127790000000
        39    2        1.838500000000      10.408600000000      -1.881620000000
        40    2        1.506080000000      10.040190000000      -0.247680000000
        41    1        4.835560000000       6.297790000000      -5.157490000000
        42    2        5.337650000000       6.419770000000      -5.963770000000
        43    2        5.465020000000       6.875330000000      -4.586220000000
        44    1        4.060240000000       3.411470000000      10.279740000000
        45    2        4.637270000000       2.646080000000      10.578940000000
        46    2        3.964930000000       8.063660000000       4.575340000000
        47    1       13.879210000000      10.847970000000       2.039630000000
        48    2       13.873650000000      10.833580000000       3.063250000000
        49    2       14.645400000000      11.384510000000       1.698420000000
        50    1        3.956640000000       3.249310000000       1.472880000000
        51    2        7.177650000000      -5.264650000000       4.830770000000
        52    2        3.472260000000       3.132280000000       0.623640000000
        53    1       14.050980000000       5.097340000000       9.286800000000
        54    2       14.827920000000       4.300230000000       9.449730000000
        55    2       11.531880000000       8.511870000000      11.660900000000
        56    1        5.631500000000      11.615020000000      10.412730000000
        57    2        4.964340000000      11.469120000000       9.718970000000
        58    2        2.891920000000       9.363160000000       7.958880000000
        59    1       -2.007160000000       6.470940000000       8.473130000000
        60    2       -1.654360000000       6.030290000000       7.624170000000
        61    2       -1.899960000000       5.910750000000       9.177730000000
        62    1       12.088470000000      13.401780000000       6.378280000000
        63    2       11.798160000000      13.590170000000       7.355620000000
        64    2       12.607280000000      12.507950000000       6.121260000000
        65    1        4.893890000000       5.935200000000      -0.442280000000
        66    2        4.181310000000       6.385530000000      -1.046330000000
        67    2        4.715050000000       5.095790000000      -0.726990000000
        68    1        5.775810000000       1.744680000000      -0.930520000000
        69    2        5.869160000000       0.809620000000      -1.070380000000
        70    2        6.684570000000       2.258130000000      -0.835440000000
        71    1        9.992140000000       1.245700000000      -0.281110000000
        72    2        9.295370000000       1.693190000000      -0.804840000000
        73    2        9.617160000000       1.247250000000       0.600160000000
        74    1        9.379350000000      10.662600000000      11.083090000000
        75    2       10.131680000000      11.025090000000      11.368680000000
        76    2        9.747390000000      10.045320000000      10.279960000000
        77    1       -1.108730000000       8.474670000000      -1.706190000000
        78    2       -0.508240000000       8.805610000000      -2.313800000000
        79    2        1.505770000000       7.651110000000       4.811390000000
        80    1       -1.614770000000       1.509410000000       8.605220000000
        81    2       -2.489850000000       1.277850000000       8.520230000000
        82    2       -1.547940000000       2.063940000000       9.405440000000
        83    1       10.179250000000       4.257060000000      16.038090000000
        84    2       11.052180000000       4.588940000000      15.482400000000
        85    2        9.450520000000       4.960820000000      15.872720000000
        86    1        7.181890000000       6.889570000000       0.691180000000
        87    2        6.272920000000       6.707800000000       0.375840000000
        88    2        7.128020000000       7.836370000000       0.694070000000
        89    1        4.809550000000       3.694370000000       7.461350000000
        90    2        5.783750000000       3.369760000000       7.476530000000
        91    2        4.642960000000       4.664740000000       7.424940000000
        92    1        1.974960000000       1.561920000000      10.633080000000
        93    2        2.436110000000       2.413190000000      10.393150000000
        94    2        5.576950000000      -1.566270000000      10.862000000000
        95    1        4.877590000000      -3.395700000000      11.388260000000
        96    2        1.100810000000       3.411780000000      15.790120000000
        97    2        3.931070000000      -3.155980000000      11.716090000000
        98    1        1.140130000000      -0.940850000000       4.925130000000
        99    2        2.137170000000      -1.094920000000       5.206320000000
       100    2        2.878520000000       7.444840000000       9.552550000000
       101    1        3.243730000000      12.937320000000      13.538950000000
       102    2        5.060880000000      11.413560000000      14.495060000000
       103    2        5.233890000000       9.225040000000      12.305120000000
       104    1        9.800040000000      -2.108150000000       2.735790000000
       105    2        5.159160000000      -2.225660000000       2.767050000000
       106    2        3.140310000000       0.852930000000       0.230460000000
       107    1        7.411710000000      15.296080000000       7.756200000000
       108    2        7.406260000000      14.360600000000       8.329250000000
       109    2        4.392430000000      16.291361000000       9.390990000000
       110    1       -0.239750000000       8.559020000000       7.949460000000
       111    2        0.765430000000       8.232670000000       8.129270000000
       112    2       -0.760230000000       7.652750000000       8.169380000000
       113    1        7.907920000000      12.752270000000       9.978480000000
       114    2        8.432120000000      12.044020000000      10.678900000000
       115    2        6.928250000000      12.206900000000       9.953880000000
       116    1       -0.162690000000       7.628780000000       0.738360000000
       117    2       -0.372470000000       6.700390000000       0.615480000000
       118    2        0.807740000000       7.436900000000       0.969190000000
       119    1        4.057770000000      11.060170000000       5.427660000000
       120    2       11.216020000000      12.408310000000       0.390730000000
       121    2        3.976580000000      15.357940000000       6.088870000000
       122    1       11.500980000000       5.279830000000      13.848410000000
       123    2       10.786700000000       5.333520000000      13.180530000000
       124    2       12.039050000000       4.481410000000      13.470420000000
       125    1       -4.962580000000       4.899020000000       9.514770000000
       126    2       -4.703220000000       4.280830000000       8.731900000000
       127    2       -4.060660000000       5.302040000000       9.661610000000
       128    1       -2.810770000000       6.118510000000      11.632480000000
       129    2       -3.706260000000       6.142790000000      11.983170000000
       130    2       -2.398930000000       6.980640000000      11.326300000000
       131    1        1.246310000000       2.735360000000       5.736860000000
       132    2        0.243330000000       1.796830000000       6.201960000000
       133    2        2.170840000000       2.404800000000       5.197390000000
       134    1        8.064550000000       8.814130000000       7.984010000000
       135    2        7.388640000000       8.452120000000       8.604630000000
       136    2        8.772490000000       8.111280000000       8.072390000000
       137    1        4.459660000000       8.644960000000       3.963650000000
       138    2        3.155080000000       8.350260000000      14.182320000000
       139    2        5.271410000000       8.318350000000       4.314210000000
       140    1        0.191550000000      -3.481000000000       5.262480000000
       141    2        3.320390000000       7.032340000000      13.433690000000
       142    2       -0.345850000000      -3.806160000000       4.515860000000
       143    1       13.793320000000       5.506830000000       6.413680000000
       144    2       13.954030000000       5.543240000000       7.409170000000
       145    2       13.838040000000       3.637640000000       5.986740000000
       146    1       20.591560000000       3.242160000000      -0.622650000000
       147    2       20.326490000000       3.564770000000       0.167900000000
       148    2       20.407240000000       4.027150000000      -1.231610000000
       149    1        8.717880000000      -0.213270000000      17.198681000000
       150    2       12.221510000000       0.641900000000      15.641210000000
       151    2        8.949660000000      -0.954300000000      16.664480000000
       152    1       -0.801760000000       4.224970000000      10.284080000000
       153    2       -0.005060000000       4.464030000000       9.979650000000
       154    2       -1.303610000000       4.712360000000      10.956350000000
       155    1       11.983590000000       1.492560000000       2.973820000000
       156    2        7.974750000000       2.727610000000       6.972440000000
       157    2       10.951640000000       1.588020000000       3.060180000000
       158    1        6.320440000000       7.341120000000      -2.910060000000
       159    2        6.630270000000       6.483800000000      -2.515250000000
       160    2        5.819410000000       7.811080000000      -2.312550000000
       161    1       -1.324940000000       7.873950000000       3.252250000000
       162    2       -1.622860000000       8.834510000000       3.097980000000
       163    2       -0.734830000000       7.825470000000       2.476170000000
       164    1        7.633590000000       9.606740000000       0.987270000000
       165    2        6.876390000000      10.183750000000       1.297560000000
       166    2        1.396600000000      14.412670000000      -1.060170000000
       167    1       15.303010000000       7.017420000000      10.463100000000
       168    2       14.382670000000       5.804700000000       9.835080000000
       169    2       14.768700000000       7.435100000000      11.108910000000
       170    1        6.809720000000       4.028510000000       1.741370000000
       171    2        7.145960000000       4.656360000000       2.486810000000
       172    2        5.868150000000       4.209480000000       1.779890000000
       173    1       13.928690000000      16.703640000000       3.097310000000
       174    2       14.522900000000      16.889799000000       3.839750000000
       175    2       14.340120000000      19.303011000000       3.470300000000
       176    1       14.666620000000       7.186070000000       4.328600000000
       177    2       21.462481000000       6.863220000000       3.039710000000
       178    2       14.423250000000       6.109090000000       5.881010000000
       179    1        9.211970000000       2.599530000000       5.951810000000
       180    2        9.964460000000       3.376710000000       6.020980000000
       181    2        9.529950000000       1.761060000000       6.280170000000
       182    1        5.209630000000      10.464000000000       1.864320000000
       183    2       -0.165030000000       8.511450000000       6.028650000000
       184    2        4.012910000000      10.165180000000       4.885550000000
       185    1       -3.124010000000       1.748640000000      15.040060000000
       186    2       -3.345930000000       1.296990000000      15.925640000000
       187    2       -2.856010000000       2.589240000000      15.317460000000
       188    1       10.736690000000       4.873970000000       6.324300000000
       189    2       10.338220000000       4.777380000000       5.481800000000
       190    2       11.762660000000       4.771490000000       6.332820000000
       191    1       11.600460000000      11.277240000000       7.846900000000
       192    2       11.526640000000      10.300330000000       7.667140000000
       193    2        8.192720000000      10.747690000000       7.719800000000