 #  generated by VMD

         384  atoms
           2  atom types

      0.000000000000      16.000000000000  xlo xhi
      0.000000000000      16.000000000000  ylo yhi
      0.000000000000      16.000000000000  zlo zhi

Masses

            1   15.99900000             # O
            2   1.00800000              # H

Atoms # atomic

         1    1       13.323300000000      -0.171190000000      10.436100000000
         2    2       13.582700000000      -0.001620000000       9.573290000000
         3    2       12.371000000000       0.039110000000      10.421900000000
         4    1        3.070750000000       8.282870000000      13.053400000000
         5    2        3.004110000000       9.292140000000      12.757800000000
         6    2        3.416490000000       8.280000000000      13.808000000000
         7    1        4.876540000000      18.528099000000      -1.417580000000
         8    2        5.455270000000      19.164700000000      -1.766920000000
         9    2        5.552910000000       2.183140000000      -0.688180000000
        10    1        1.918130000000      11.568100000000       9.933910000000
        11    2        1.422320000000      12.036000000000       9.285870000000
        12    2        2.909190000000      11.397000000000       9.731960000000
        13    1       11.511400000000      13.446700000000      14.456500000000
        14    2       11.449100000000      14.468900000000      14.274500000000
        15    2       11.310800000000      13.133500000000      13.477000000000
        16    1        8.374100000000       2.213700000000       3.527590000000
        17    2        7.865250000000       2.985840000000       3.844950000000
        18    2        7.905620000000       1.884460000000       2.818320000000
        19    1        7.136380000000      14.898200000000       7.965030000000
        20    2        7.249280000000      15.143600000000       8.906090000000
        21    2        6.551950000000      15.415100000000       7.393540000000
        22    1        0.689510000000      14.406400000000      10.252100000000
        23    2        0.835990000000      15.292000000000      10.023400000000
        24    2        0.618240000000      14.621900000000      11.232300000000
        25    1        4.206790000000      19.866199000000       5.313870000000
        26    2        3.233180000000      20.013599000000       4.909260000000
        27    2        4.127120000000      19.821899000000       6.303200000000
        28    1        9.306830000000       3.098120000000      15.900500000000
        29    2        9.935820000000       3.186950000000      15.155600000000
        30    2        8.597580000000       2.540830000000      15.595300000000
        31    1       13.131000000000       5.220590000000      12.482700000000
        32    2       12.731600000000       5.921980000000      11.867500000000
        33    2       13.618900000000       4.597060000000      11.897300000000
        34    1        6.093150000000      12.603400000000       7.098100000000
        35    2        5.264990000000      12.468400000000       7.799820000000
        36    2        6.281460000000      13.438400000000       7.488590000000
        37    1       13.804500000000       7.324610000000       6.460910000000
        38    2       14.152100000000       6.658750000000       6.951100000000
        39    2       12.809600000000       7.111220000000       6.712240000000
        40    1        1.349780000000       9.475710000000       8.224410000000
        41    2        1.784980000000       8.680890000000       8.689600000000
        42    2        1.410730000000      10.318200000000       8.868710000000
        43    1        1.825770000000       3.804550000000      16.091400000000
        44    2        1.697790000000       4.750000000000      16.315500000000
        45    2        2.453490000000       3.561850000000      15.320300000000
        46    1       14.690400000000       8.869050000000      12.107300000000
        47    2       14.960500000000       9.774330000000      11.969800000000
        48    2       15.397800000000       8.356400000000      12.481600000000
        49    1        6.604580000000      15.338100000000      10.406800000000
        50    2        6.880650000000      16.234699000000      10.620000000000
        51    2        5.644870000000      15.196700000000      10.598800000000
        52    1       11.739800000000      11.756000000000      12.133800000000
        53    2       11.992900000000      10.897600000000      12.524400000000
        54    2       12.298500000000      12.043900000000      11.488000000000
        55    1       15.397300000000      11.353500000000      11.424400000000
        56    2       16.191299000000      11.111600000000      10.925800000000
        57    2       14.721800000000      11.880400000000      10.809900000000
        58    1       15.343100000000       7.518950000000      15.283300000000
        59    2       14.852400000000       8.493880000000      15.527900000000
        60    2       14.773100000000       6.931390000000      15.010700000000
        61    1        9.084190000000      13.926500000000      11.690800000000
        62    2        9.470440000000      13.045500000000      11.372600000000
        63    2        8.257360000000      13.870400000000      11.187700000000
        64    1       17.016500000000      16.757601000000       6.468890000000
        65    2       16.221201000000      16.377100000000       6.630390000000
        66    2       16.860399000000      17.704599000000       6.315350000000
        67    1        9.058910000000       5.623470000000      12.941300000000
        68    2        9.652730000000       4.893260000000      13.143600000000
        69    2        9.611060000000       6.308790000000      13.056600000000
        70    1        3.538710000000       7.936360000000      -0.151270000000
        71    2        3.604700000000       8.494570000000       0.534770000000
        72    2        2.823770000000       7.120680000000      -0.061810000000
        73    1       15.135300000000      -2.398650000000       5.061310000000
        74    2       15.848100000000      -1.711990000000       4.858810000000
        75    2       -1.579300000000      -2.128450000000       4.437230000000
        76    1        7.866790000000      14.901200000000      14.049500000000
        77    2        8.551600000000      14.854700000000      13.408500000000
        78    2        8.063220000000      14.131000000000      14.684600000000
        79    1        8.290010000000       3.713210000000       9.090160000000
        80    2        7.635260000000       4.353970000000       8.687650000000
        81    2        9.044580000000       4.271860000000       9.465190000000
        82    1       12.205700000000       9.252520000000      13.488900000000
        83    2       12.719500000000       8.722720000000      13.000300000000
        84    2       12.604800000000       9.362150000000      14.444000000000
        85    1        3.264440000000      15.200600000000       6.615990000000
        86    2        3.086330000000      14.426100000000       5.978800000000
        87    2        2.337650000000      15.599200000000       6.670460000000
        88    1        0.533700000000       7.184060000000      12.986400000000
        89    2        1.520920000000       7.739190000000      13.068100000000
        90    2       15.914900000000       7.248510000000      13.740300000000
        91    1        3.985120000000       2.880950000000      10.903800000000
        92    2        3.681820000000       3.669440000000      11.148800000000
        93    2        3.781590000000       2.321480000000      11.561300000000
        94    1       14.209700000000       0.630750000000       7.887770000000
        95    2       13.722500000000       1.576490000000       7.885340000000
        96    2       13.635500000000       0.108710000000       7.454320000000
        97    1       11.230700000000       6.437650000000       6.468880000000
        98    2       11.344600000000       5.479730000000       6.652370000000
        99    2       10.915500000000       6.726960000000       5.572190000000
       100    1       11.815100000000       3.091950000000       3.881600000000
       101    2       11.657700000000       2.110160000000       3.653350000000
       102    2       11.217300000000       3.512240000000       3.274070000000
       103    1        6.431670000000       5.090360000000      -2.201270000000
       104    2        7.353780000000       5.291620000000      -2.439320000000
       105    2        6.121850000000       5.563190000000      -1.439910000000
       106    1       10.157000000000       4.489070000000       2.128190000000
       107    2        9.373360000000       4.700560000000       2.789630000000
       108    2        9.736610000000       3.743170000000       1.670540000000
       109    1        7.045190000000       2.224270000000      10.833300000000
       110    2        7.312590000000      19.006701000000      10.152900000000
       111    2        6.029280000000       2.443730000000      10.996000000000
       112    1       17.407000000000      12.821600000000      -1.607610000000
       113    2        1.269780000000      13.788900000000      13.861600000000
       114    2       16.626801000000      12.196000000000      14.225600000000
       115    1        9.462880000000      14.674700000000       1.952930000000
       116    2        9.298900000000      14.139600000000       1.153890000000
       117    2        9.295050000000      14.052200000000       2.747090000000
       118    1        5.003200000000       7.826250000000       5.602850000000
       119    2        4.901420000000       7.287970000000       4.762520000000
       120    2        4.217490000000       8.422310000000       5.741700000000
       121    1        6.078410000000       9.616950000000       8.413230000000
       122    2        5.483270000000      10.232100000000       8.704150000000
       123    2        7.072320000000       9.809230000000       8.564890000000
       124    1        1.269420000000       6.353560000000       0.444580000000
       125    2        1.038390000000       6.610120000000       1.380830000000
       126    2        0.730960000000       6.997820000000      -0.291470000000
       127    1        8.655160000000      11.880200000000       6.402840000000
       128    2        7.769360000000      11.846800000000       6.573720000000
       129    2        8.789160000000      12.641400000000       5.738010000000
       130    1        3.378260000000      16.954901000000      12.827200000000
       131    2        4.050000000000      17.345600000000      13.268000000000
       132    2        3.523640000000      -0.087900000000      12.946900000000
       133    1        7.194080000000       9.596270000000      12.155300000000
       134    2        7.224220000000       8.647480000000      11.890300000000
       135    2        6.890610000000      10.158500000000      11.366100000000
       136    1        2.709830000000       4.676800000000       3.438520000000
       137    2        3.303230000000       4.630950000000       2.624290000000
       138    2        2.205440000000       3.835990000000       3.138620000000
       139    1       19.929300000000      12.684000000000       0.015960000000
       140    2       18.994301000000      12.585600000000      -0.310750000000
       141    2       20.261700000000      11.794000000000       0.497760000000
       142    1        0.845060000000       2.770490000000       2.466570000000
       143    2        0.044240000000       3.361580000000       2.857880000000
       144    2        0.865640000000       3.139180000000      17.558201000000
       145    1       15.604800000000      10.942900000000       4.500470000000
       146    2       15.003800000000      10.517600000000       5.267580000000
       147    2       15.541300000000      12.043200000000       4.634400000000
       148    1        6.960230000000       4.319260000000       4.714220000000
       149    2        5.963410000000       4.109870000000       4.760800000000
       150    2        6.881940000000       4.997300000000       4.128950000000
       151    1        4.603020000000      10.468300000000       3.567460000000
       152    2        3.668060000000      10.222500000000       3.654070000000
       153    2        5.163490000000      10.521800000000       4.350980000000
       154    1        5.186580000000      13.559100000000       4.425800000000
       155    2        4.471150000000      12.849000000000       4.373570000000
       156    2        5.477110000000      13.411800000000       5.324330000000
       157    1        7.419160000000      17.364401000000      15.404200000000
       158    2        7.360710000000       0.797600000000      16.059799000000
       159    2        7.456390000000      16.727100000000      14.657300000000
       160    1        9.395000000000      11.267100000000      11.146700000000
       161    2       10.374300000000      11.175200000000      11.361900000000
       162    2        8.998680000000      10.714200000000      11.815800000000
       163    1       -1.640990000000      -0.343040000000      13.443900000000
       164    2       -2.270450000000      -0.554970000000      12.601000000000
       165    2       -2.370240000000       0.170370000000      13.995600000000
       166    1        7.481890000000       9.060400000000      -1.037630000000
       167    2        7.908570000000       9.638330000000      -0.520100000000
       168    2        7.093340000000       9.502010000000      14.061200000000
       169    1        5.072180000000       6.878960000000       2.840570000000
       170    2        6.016270000000       6.612080000000       2.592550000000
       171    2        5.147950000000       7.667330000000       2.225040000000
       172    1       14.945300000000       3.012900000000      11.993900000000
       173    2       14.997600000000       2.880420000000      12.984000000000
       174    2       15.156400000000       2.111200000000      11.499800000000
       175    1        4.579990000000       6.391750000000      11.390900000000
       176    2        5.518440000000       6.519000000000      11.707600000000
       177    2        4.048540000000       6.890430000000      12.064600000000
       178    1       14.245200000000      12.426000000000      14.250300000000
       179    2       14.184800000000      11.856500000000      13.447800000000
       180    2       13.591100000000      13.079200000000      14.158200000000
       181    1       -0.767520000000       3.420580000000      -0.924440000000
       182    2       14.526900000000       4.244050000000      -0.822850000000
       183    2        0.127160000000       3.845420000000      -0.765480000000
       184    1       13.728200000000      10.235100000000       2.661320000000
       185    2       14.360600000000      10.325800000000       3.407480000000
       186    2       13.386300000000       9.279770000000       2.414600000000
       187    1        2.429030000000      12.518400000000       5.098980000000
       188    2        2.536470000000      12.145900000000       5.950770000000
       189    2        2.469580000000      11.767600000000       4.408090000000
       190    1       10.741100000000       8.157200000000       4.035270000000
       191    2       10.747600000000       9.030480000000       4.499770000000
       192    2       11.682400000000       7.891090000000       3.547370000000
       193    1        7.275990000000       0.300040000000       1.861430000000
       194    2        6.435850000000      15.912200000000       1.965970000000
       195    2        8.026370000000      -0.241350000000       2.077840000000
       196    1        4.846070000000       7.262650000000       8.856250000000
       197    2        5.219220000000       8.215040000000       8.586280000000
       198    2        4.951650000000       6.922470000000       9.842770000000
       199    1        1.778410000000       1.283830000000       9.162690000000
       200    2        2.337920000000       1.994900000000       9.379220000000
       201    2        1.540750000000       1.558880000000       8.213610000000
       202    1       12.919100000000       7.223580000000      10.765600000000
       203    2       13.702500000000       7.804030000000      10.956200000000
       204    2       12.460800000000       7.884280000000      10.233900000000
       205    1       11.579500000000       0.351740000000       4.098370000000
       206    2       12.134500000000      -0.113590000000       3.438520000000
       207    2       10.749600000000      -0.067670000000       4.055460000000
       208    1       10.527300000000       0.157420000000      10.249500000000
       209    2       10.443700000000       0.131620000000       9.217860000000
       210    2        9.971300000000      -0.690610000000      10.437200000000
       211    1       11.538300000000       3.622920000000       6.417600000000
       212    2       11.489300000000       3.474320000000       5.478790000000
       213    2       10.938800000000       3.078000000000       7.077130000000
       214    1       10.595600000000       4.623170000000      10.234300000000
       215    2       11.319200000000       4.255090000000       9.779810000000
       216    2       10.490900000000       5.591820000000       9.911320000000
       217    1        6.184960000000       6.683750000000      16.099501000000
       218    2        5.228690000000       6.884470000000      16.154499000000
       219    2        6.814090000000       7.501290000000      15.953100000000
       220    1        8.972550000000       9.935720000000       8.685890000000
       221    2        9.364240000000      10.481600000000       7.813830000000
       222    2        9.119400000000      10.352900000000       9.613760000000
       223    1        6.293070000000       5.118780000000       7.548960000000
       224    2        5.801040000000       5.908920000000       7.824760000000
       225    2        6.345100000000       5.056280000000       6.691870000000
       226    1        6.758150000000      12.811400000000      18.004900000000
       227    2        6.143430000000      13.016700000000       2.669200000000
       228    2        6.400860000000      13.190700000000      17.190500000000
       229    1        4.371140000000      12.241800000000       9.367130000000
       230    2        4.014140000000      13.237300000000       9.501300000000
       231    2        4.873020000000      12.290500000000      10.191400000000
       232    1       14.514300000000       9.894950000000       7.021680000000
       233    2       15.330600000000       9.782950000000       7.630990000000
       234    2       13.935900000000       9.009050000000       6.731570000000
       235    1        2.196890000000       6.971530000000       8.911800000000
       236    2        3.035830000000       6.779130000000       8.913590000000
       237    2        1.939520000000       6.513220000000       9.826470000000
       238    1        5.631630000000       0.653740000000       6.438610000000
       239    2        5.481440000000       1.643420000000       6.823080000000
       240    2        4.761470000000       0.241160000000       6.407040000000
       241    1       14.659700000000       6.398990000000       3.906180000000
       242    2       14.336200000000       6.789500000000       4.719420000000
       243    2       14.350100000000       5.534920000000       4.021160000000
       244    1        4.516500000000       0.136460000000       2.495400000000
       245    2        3.926390000000       0.932840000000       2.570510000000
       246    2        3.654240000000      -0.466740000000       2.853330000000
       247    1       13.214000000000      12.976000000000      10.160500000000
       248    2       13.028500000000      12.697000000000       9.184910000000
       249    2       13.113200000000      14.018400000000      10.070800000000
       250    1       11.566200000000      12.023500000000       3.076890000000
       251    2       11.146100000000      11.767700000000       3.921730000000
       252    2       12.497600000000      11.456700000000       2.825470000000
       253    1        5.534000000000      12.093100000000      11.920200000000
       254    2        4.860380000000      11.602400000000      12.386000000000
       255    2        5.338380000000      12.930900000000      12.198700000000
       256    1        9.933880000000      -1.572890000000       7.820690000000
       257    2        9.529510000000      -2.437490000000       8.027740000000
       258    2        9.064460000000      -1.048400000000       7.424060000000
       259    1       12.319500000000      14.962500000000       6.510710000000
       260    2       11.459500000000      14.879500000000       6.881890000000
       261    2       12.210000000000      -0.356160000000       5.757790000000
       262    1        8.300840000000      10.700600000000       1.189500000000
       263    2        7.738910000000      11.459500000000       1.454990000000
       264    2        8.633380000000      10.259300000000       1.945250000000
       265    1       -1.502150000000       5.704870000000       9.116790000000
       266    2       13.986100000000       6.350490000000       9.839520000000
       267    2       15.270200000000       5.412700000000       9.504730000000
       268    1       10.524500000000       7.370520000000       9.063460000000
       269    2       10.223800000000       8.332500000000       9.101700000000
       270    2       10.605400000000       7.008110000000       8.116980000000
       271    1        3.158350000000      10.971900000000      12.625800000000
       272    2        2.976750000000      11.095100000000      11.765000000000
       273    2        2.369870000000      11.579000000000      13.133800000000
       274    1        7.996990000000       8.649630000000       3.144860000000
       275    2        7.589950000000       9.100700000000       4.013150000000
       276    2        8.880900000000       8.653220000000       3.569740000000
       277    1       -2.227220000000       1.056700000000       0.274230000000
       278    2       -3.136360000000       1.358530000000       0.370780000000
       279    2       -1.729600000000       1.910410000000      -0.087480000000
       280    1        7.685370000000       7.024110000000      11.266400000000
       281    2        8.297930000000       6.325430000000      11.868800000000
       282    2        7.847920000000       6.902660000000      10.287400000000
       283    1        4.741240000000      19.068001000000       8.067560000000
       284    2        5.300740000000       3.897630000000       8.384070000000
       285    2        4.683500000000      18.824800000000       9.079640000000
       286    1       10.983300000000       1.086260000000      16.646099000000
       287    2       10.273300000000       1.708790000000      16.798901000000
       288    2       10.810900000000       0.500140000000      17.392500000000
       289    1        6.706620000000       9.630550000000       5.280650000000
       290    2        7.005680000000      10.161000000000       6.037520000000
       291    2        5.995010000000       9.017290000000       5.497580000000
       292    1       10.802900000000       3.739170000000      13.302800000000
       293    2       10.629800000000       2.856650000000      12.824500000000
       294    2       11.679800000000       4.012710000000      12.860400000000
       295    1        8.661040000000      -2.321140000000       4.596310000000
       296    2        8.707920000000      -1.340090000000       4.953930000000
       297    2        7.870060000000      -2.769150000000       4.130600000000
       298    1       -0.094720000000      -2.934390000000       7.999760000000
       299    2       -0.405620000000      13.396900000000       7.161300000000
       300    2       -0.114100000000      -2.308600000000       8.706280000000
       301    1        4.990180000000      14.343400000000      13.411400000000
       302    2        5.821490000000      14.758100000000      13.671400000000
       303    2        4.558550000000      14.124800000000      14.189000000000
       304    1       14.199500000000      10.008700000000      15.922400000000
       305    2       14.115700000000      10.026300000000       0.863960000000
       306    2       14.183500000000      10.930100000000      15.654900000000
       307    1       13.566200000000       5.497450000000      14.952700000000
       308    2       13.326000000000       5.438560000000      13.960200000000
       309    2       12.765900000000       5.584390000000      15.622200000000
       310    1        9.402420000000      17.598000000000      12.314600000000
       311    2        8.538310000000      17.818100000000      12.259200000000
       312    2        9.704570000000      17.189100000000      11.592200000000
       313    1        1.156090000000       6.985760000000       3.341290000000
       314    2        1.696080000000       6.293350000000       3.622810000000
       315    2       16.295799000000       6.719100000000       3.642880000000
       316    1       11.571900000000       0.273760000000      14.104700000000
       317    2       11.286600000000       0.542190000000      14.985600000000
       318    2       11.019800000000       0.499880000000      13.509600000000
       319    1        9.841320000000       1.640210000000       7.956600000000
       320    2        9.084580000000       2.102600000000       8.541810000000
       321    2        9.438810000000       1.339470000000       7.228660000000
       322    1       11.411400000000       6.427960000000       0.639510000000
       323    2       11.039900000000       5.727770000000      17.157900000000
       324    2       10.948100000000       6.885780000000      -0.039280000000
       325    1        5.023050000000      10.207300000000      16.963800000000
       326    2        5.815920000000      10.033600000000      16.605400000000
       327    2        5.115860000000      10.672600000000      17.880199000000
       328    1        8.543610000000       0.438270000000       5.283260000000
       329    2        8.543920000000       1.077050000000       4.587550000000
       330    2        7.625980000000       0.442070000000       5.617350000000
       331    1        2.955730000000       9.643640000000       5.983550000000
       332    2        2.288890000000       9.643020000000       6.610060000000
       333    2        2.511670000000       9.344590000000       5.143100000000
       334    1       12.903800000000      -1.715190000000       2.975570000000
       335    2       12.199000000000      13.525700000000       3.124390000000
       336    2       13.299700000000      -1.865320000000       2.245010000000
       337    1       12.838400000000      11.977900000000       7.380150000000
       338    2       12.910900000000      12.957500000000       7.312340000000
       339    2       13.702900000000      11.547700000000       7.483050000000
       340    1       13.598400000000       3.398830000000       8.018030000000
       341    2       12.834200000000       3.577130000000       7.337350000000
       342    2       13.766800000000       4.359190000000       8.591040000000
       343    1       16.834801000000       5.153470000000      11.097800000000
       344    2       16.710400000000       5.760800000000      11.779200000000
       345    2       16.288799000000       4.283870000000      11.153100000000
       346    1        1.024910000000      15.307600000000       3.559930000000
       347    2        0.516070000000      15.739400000000       2.774230000000
       348    2        1.572350000000      16.209900000000       3.815410000000
       349    1        0.890310000000      14.996200000000      12.981600000000
       350    2        1.220130000000      15.881300000000      12.988100000000
       351    2       -0.154690000000      15.153600000000      13.276800000000
       352    1       15.953000000000       3.298180000000       6.264310000000
       353    2       16.438200000000       4.308510000000       6.230900000000
       354    2       15.308100000000       3.477460000000       6.983310000000
       355    1        9.333820000000      13.105000000000      15.979700000000
       356    2        9.407490000000      12.156300000000      16.297501000000
       357    2       10.200300000000      13.027500000000      15.429300000000
       358    1        7.892270000000       5.847650000000       2.423220000000
       359    2        8.022600000000       6.836670000000       2.687800000000
       360    2        7.459270000000       5.756430000000       1.468560000000
       361    1        1.980030000000       9.734140000000       3.648020000000
       362    2        1.553440000000       8.727740000000       3.417910000000
       363    2        1.039100000000      10.192300000000       3.938330000000
       364    1       15.213900000000      -1.256300000000      16.987400000000
       365    2       15.922000000000      14.525000000000      16.136101000000
       366    2       -1.375620000000      -0.680180000000      16.643700000000
       367    1        0.947910000000       6.221340000000       6.621760000000
       368    2        1.226890000000       6.242680000000       7.680250000000
       369    2        0.969340000000       6.989660000000       6.155850000000
       370    1       10.058700000000       7.573660000000      14.225100000000