 #  generated by VMD
  
         234  atoms
           5  atom types
 
      0.000000000000      15.000000000000  xlo xhi
      0.000000000000      15.000000000000  ylo yhi
      0.000000000000      15.000000000000  zlo zhi
 
Masses
 
            1   12.01100000             # C
            2   1.00800000              # H
            3   35.45000000             # Cl
            4   79.90400000             # Br
            5   14.00700000             # N
 
Atoms # atomic
 
         1    1        7.500000000000       7.500000000000       7.500000000000
         2    2        8.454969000000       7.999201000000       7.263127000000
         3    2        7.358304000000       6.540461000000       7.009687000000
         4    2        7.500677000000       7.464555000000       8.632330000000
         5    3        6.088544000000       8.679865000000       6.911840000000
         6    4        9.237630000000       4.799782000000       6.208389000000
         7    1        4.514604000000       6.106073000000      14.084019000000
         8    2        4.847154000000       5.639578000000      13.118560000000
         9    2        5.415363000000       6.266928000000      14.663229000000
        10    2        3.824303000000       5.542925000000      14.632071000000
        11    1        4.040368000000       7.520868000000      13.801723000000
        12    5        3.585353000000       8.614871000000      13.892968000000
        13    1        9.634632000000      10.568422000000      10.075916000000
        14    2       10.314396000000      11.203966000000      10.696660000000
        15    2        9.162054000000      11.220137000000       9.364740000000
        16    2        8.841834000000      10.325219000000      10.788838000000
        17    1       10.228390000000       9.387256000000       9.522644000000
        18    5       10.705118000000       8.417149000000       9.023201000000
        19    1        7.401644000000       1.971170000000       5.072174000000
        20    2        7.872499000000       2.927854000000       5.359284000000
        21    2        7.881935000000       1.036372000000       5.464200000000
        22    2        7.298565000000       1.967939000000       3.969227000000
        23    1        6.075598000000       2.061208000000       5.715184000000
        24    5        5.144132000000       2.109271000000       6.425989000000
        25    1       12.865511000000       0.187377000000       2.533562000000
        26    2       13.212501000000       1.225230000000       2.327210000000
        27    2       12.444317000000       0.257917000000       3.557529000000
        28    2       13.722564000000      14.547039000000       2.701245000000
        29    1       11.868413000000      14.800585000000       1.533376000000
        30    5       11.170042000000      14.573480000000       0.628569000000
        31    1        2.640395000000       2.960839000000      12.361759000000
        32    2        2.715296000000       2.564470000000      13.385654000000
        33    2        3.653345000000       3.012385000000      11.798234000000
        34    2        2.114461000000       3.958587000000      12.277240000000
        35    1        1.811353000000       1.992005000000      11.519710000000
        36    5        1.185922000000       1.360187000000      10.810315000000
        37    1       14.802008000000       0.188008000000       0.067723000000
        38    2       14.404593000000       1.189341000000       0.098426000000
        39    2       14.439038000000      14.604578000000      14.166082000000
        40    2       14.420509000000      14.597058000000       0.965472000000
        41    1        1.283339000000       0.289588000000       0.038578000000
        42    5        2.441008000000       0.491895000000       0.087802000000
        43    1        1.564342000000      14.044349000000       8.815742000000
        44    2        2.072642000000      13.966008000000       7.830971000000
        45    2        0.469732000000      14.011320000000       8.667402000000
        46    2        1.941094000000       0.052479000000       9.204747000000
        47    1        1.957380000000      12.961277000000       9.674794000000
        48    5        2.261766000000      12.148785000000      10.399867000000
        49    1        2.591125000000       2.983422000000       3.387407000000
        50    2        3.171757000000       2.874610000000       4.348801000000
        51    2        3.299512000000       2.887543000000       2.543237000000
        52    2        2.290608000000       4.032708000000       3.440556000000
        53    1        1.449433000000       2.085748000000       3.336602000000
        54    5        0.533782000000       1.383027000000       3.298078000000
        55    1       11.084315000000       6.724132000000      14.207998000000
        56    2       10.464775000000       6.751315000000      13.318369000000
        57    2       12.111891000000       6.990647000000      13.861819000000
        58    2       10.905504000000       5.769981000000      14.625239000000
        59    1       10.607716000000       7.693778000000       0.223587000000
        60    5       10.312459000000       8.563468000000       0.967279000000
        61    1        9.530473000000      11.753089000000      14.345774000000
        62    2       10.292748000000      12.395038000000      13.896927000000
        63    2        9.162941000000      12.295367000000       0.217160000000
        64    2        9.985091000000      10.827258000000      14.633773000000
        65    1        8.444717000000      11.545901000000      13.354438000000
        66    5        7.651147000000      11.314466000000      12.498125000000
        67    1       10.624577000000       4.066722000000      10.270635000000
        68    2       10.635897000000       3.687642000000      11.333364000000
        69    2       10.376259000000       5.166289000000      10.279907000000
        70    2       10.033824000000       3.558935000000       9.468290000000
        71    1       11.984476000000       4.074600000000       9.728401000000
        72    5       12.988753000000       4.024185000000       9.089602000000
        73    1       13.066922000000       6.355749000000       6.643683000000
        74    2       12.139152000000       6.725616000000       6.124265000000
        75    2       12.926671000000       5.375922000000       7.116335000000
        76    2       13.057207000000       7.115726000000       7.457655000000
        77    1       14.248515000000       6.498525000000       5.908017000000
        78    5        0.129785000000       6.832599000000       5.206707000000
        79    1        2.949128000000      11.166495000000       0.747314000000
        80    2        2.283302000000      11.722746000000       0.018389000000
        81    2        3.930559000000      11.608910000000       1.015181000000
        82    2        2.933340000000      10.131890000000       0.338611000000
        83    1        2.190451000000      11.299330000000       2.026987000000
        84    5        1.744169000000      11.280055000000       3.113834000000
        85    1        5.794418000000      14.703371000000       8.045100000000
        86    2        5.079463000000       0.194666000000       8.780509000000
        87    2        6.527742000000       0.471617000000       7.763096000000
        88    2        5.177634000000      14.361481000000       7.159118000000
        89    1        6.271927000000      13.481929000000       8.634582000000
        90    5        6.571797000000      12.497617000000       9.151771000000
        91    1        7.194202000000       5.417568000000       2.816098000000
        92    2        6.714744000000       6.424284000000       2.901752000000
        93    2        6.498107000000       4.619517000000       2.764154000000
        94    2        7.822957000000       5.234703000000       3.697662000000
        95    1        7.847394000000       5.416205000000       1.533121000000
        96    5        8.200729000000       5.561003000000       0.461081000000
        97    1        8.109245000000      14.282642000000       2.617409000000
        98    2        8.624802000000      13.366135000000       3.025413000000
        99    2        8.700040000000       0.170097000000       2.721989000000
       100    2        7.161478000000      14.450908000000       3.130251000000
       101    1        7.773844000000      14.130485000000       1.237406000000
       102    5        7.628433000000      14.137632000000       0.077653000000
       103    1        1.121581000000       3.161443000000       8.157995000000
       104    2        1.935167000000       2.741170000000       7.584958000000
       105    2        0.617803000000       2.325193000000       8.596976000000
       106    2        0.289873000000       3.536303000000       7.515324000000
       107    1        1.521522000000       4.161099000000       9.105936000000
       108    5        1.663450000000       5.073874000000       9.881325000000
       109    1       10.845780000000       9.646012000000       4.256581000000
       110    2       11.487936000000       9.832413000000       3.403590000000
       111    2       11.338895000000      10.067475000000       5.154906000000
       112    2       10.885261000000       8.511854000000       4.342502000000
       113    1        9.555931000000      10.305169000000       4.132721000000
       114    5        8.551903000000      10.949805000000       4.064000000000
       115    1        0.051843000000      13.417688000000       4.928548000000
       116    2        0.275383000000      13.193053000000       6.021684000000
       117    2        0.964689000000      13.072033000000       4.341050000000
       118    2       14.885091000000      14.490211000000       4.749909000000
       119    1       13.940371000000      12.703654000000       4.363915000000
       120    5       12.964972000000      12.163184000000       3.998303000000
       121    1       14.847268000000      10.979542000000      12.275110000000
       122    2        0.477918000000      10.469169000000      11.521692000000
       123    2       14.305980000000      11.800147000000      11.769890000000
       124    2        0.509584000000      11.278651000000      13.064752000000
       125    1       13.914596000000       9.939749000000      12.685432000000
       126    5       13.177942000000       9.025931000000      12.825237000000
       127    1        8.368909000000      14.803253000000      11.665660000000
       128    2        8.007728000000       0.696652000000      12.155876000000
       129    2        7.602790000000      14.030416000000      11.558860000000
       130    2        9.122774000000      14.274395000000      12.249809000000
       131    1        8.946861000000       0.226859000000      10.407369000000
       132    5        9.659983000000       0.513023000000       9.532794000000
       133    1        4.728792000000      13.061178000000      12.246867000000
       134    2        4.008902000000      12.290494000000      11.818343000000
       135    2        5.719736000000      12.704524000000      11.919652000000
       136    2        4.555500000000      12.980369000000      13.323569000000
       137    1        4.350854000000      14.323476000000      11.661648000000
       138    5        4.219789000000       0.374302000000      11.218922000000
       139    1       12.620110000000       4.113471000000       3.705344000000
       140    2       11.812683000000       4.133035000000       4.466298000000
       141    2       12.388749000000       3.292214000000       3.016191000000
       142    2       13.511023000000       3.838736000000       4.150253000000
       143    1       12.563093000000       5.378001000000       2.971692000000
       144    5       12.371997000000       6.479664000000       2.630984000000
       145    1       12.516118000000       0.527947000000      11.138519000000
       146    2       13.632946000000       0.543119000000      11.072617000000
       147    2       12.068156000000       0.571895000000      10.179313000000
       148    2       12.160216000000       1.352050000000      11.857158000000
       149    1       12.150548000000      14.222362000000      11.682555000000
       150    5       11.892538000000      13.106939000000      11.948748000000
       151    1       14.398639000000       5.728780000000      13.983728000000
       152    2       13.833302000000       5.580117000000      13.070239000000
       153    2       14.233071000000       6.745436000000      14.334659000000
       154    2        0.452424000000       5.528555000000      13.818989000000
       155    1       13.963371000000       4.628179000000      14.969598000000
       156    5       13.604802000000       3.625358000000       0.502060000000
       157    1       10.299878000000       3.102503000000       1.066816000000
       158    2        9.540568000000       3.875380000000       1.082069000000
       159    2       10.022339000000       2.322548000000       1.638034000000
       160    2       11.207784000000       3.565459000000       1.501446000000
       161    1       10.653136000000       2.784739000000      14.746707000000
       162    5       10.747095000000       2.572098000000      13.599685000000
       163    1        1.915687000000       7.741334000000       2.815718000000
       164    2        0.968848000000       7.957606000000       3.343808000000
       165    2        2.560858000000       7.680814000000       3.670613000000
       166    2        2.215330000000       8.528183000000       2.066896000000
       167    1        1.780705000000       6.567269000000       2.013897000000
       168    5        1.667606000000       5.713056000000       1.231875000000
       169    1        1.073391000000       9.994588000000       6.306321000000
       170    2        1.029150000000       8.890611000000       6.234167000000
       171    2        1.515629000000      10.375287000000       5.349066000000
       172    2        1.588834000000      10.287198000000       7.228152000000
       173    1       14.757003000000      10.458647000000       6.599123000000
       174    5       13.735416000000      10.751118000000       7.088066000000
       175    1       13.768831000000       7.164779000000      10.304909000000
       176    2       13.628983000000       7.353441000000      11.346674000000
       177    2       12.762236000000       7.284586000000       9.777516000000
       178    2       14.009625000000       6.099478000000      10.181145000000
       179    1       14.827151000000       7.932860000000       9.726757000000
       180    5        0.738145000000       8.567764000000       9.361077000000
       181    1       11.265879000000      12.882107000000       7.131495000000
       182    2       11.448259000000      11.921548000000       6.621408000000
       183    2       12.185259000000      13.491845000000       7.252327000000
       184    2       10.839867000000      12.647357000000       8.162220000000
       185    1       10.241463000000      13.668253000000       6.427427000000
       186    5        9.516029000000      14.413873000000       5.933506000000
       187    1        5.740346000000       1.862244000000      14.569856000000
       188    2        6.409347000000       1.074698000000      14.451114000000
       189    2        4.727112000000       1.403825000000      14.552922000000
       190    2        5.922353000000       2.696426000000      13.853908000000
       191    1        5.916804000000       2.370005000000       0.898192000000
       192    5        5.822799000000       2.726430000000       1.978084000000
       193    1        3.199991000000       6.644847000000       6.938869000000
       194    2        2.172600000000       6.765207000000       6.582343000000
       195    2        3.223892000000       5.850907000000       7.677493000000
       196    2        3.638118000000       7.491189000000       7.406952000000
       197    1        3.915114000000       6.231894000000       5.722080000000
       198    5        4.285345000000       5.722915000000       4.740468000000
       199    1        7.117539000000      10.015066000000       0.891402000000
       200    2        8.105967000000       9.544983000000       0.758752000000
       201    2        6.658040000000      10.442179000000      14.945073000000
       202    2        7.376308000000      10.796369000000       1.629728000000
       203    1        6.146122000000       9.071096000000       1.415189000000
       204    5        5.427763000000       8.237200000000       1.723987000000
       205    1        6.890030000000       3.597830000000       9.006593000000
       206    2        7.564775000000       4.456860000000       8.641395000000
       207    2        7.459958000000       2.661200000000       8.848589000000
       208    2        6.093955000000       3.518633000000       8.285641000000
       209    1        6.371428000000       3.697676000000      10.301280000000
       210    5        5.968483000000       3.744503000000      11.401344000000
       211    1        4.572979000000       9.292188000000      10.525629000000
       212    2        3.966598000000       8.869434000000       9.715756000000
       213    2        4.029986000000       9.582117000000      11.395707000000
       214    2        4.982355000000      10.232044000000      10.224403000000
       215    1        5.602979000000       8.309924000000      10.962059000000
       216    5        6.359013000000       7.519854000000      11.362343000000
       217    1       13.654603000000       9.897984000000       1.604164000000
       218    2       12.845626000000      10.260823000000       2.293111000000
       219    2       13.216284000000       9.231354000000       0.871488000000
       220    2       14.403238000000       9.418452000000       2.217110000000
       221    1       14.262022000000      10.979317000000       0.884903000000
       222    5       14.802514000000      11.859301000000       0.414786000000
       223    1       11.000618000000       1.922831000000       7.188340000000
       224    2       10.978025000000       3.007609000000       7.125582000000
       225    2       10.720778000000       1.569358000000       6.194064000000
       226    2       10.233301000000       1.529311000000       7.940587000000
       227    1       12.229591000000       1.308505000000       7.548195000000
       228    5       13.209338000000       0.724252000000       7.789910000000
       229    1        5.097816000000      11.424027000000       4.797928000000
       230    2        6.156963000000      11.089310000000       4.928346000000
       231    2        4.974167000000      12.262730000000       5.454664000000
       232    2        4.283361000000      10.752221000000       4.929332000000
       233    1        5.089659000000      12.029806000000       3.448170000000
       234    5        5.195465000000      12.572681000000       2.429477000000
